# vtk DataFile Version 2.0
untitled, Created by Gmsh 4.9.5 
ASCII
DATASET UNSTRUCTURED_GRID
POINTS 5988 double
0 0 0
1 0 0
1 1 0
0 1 0
0.01408450704225353 0 0
0.02816901408450706 0 0
0.0422535211267606 0 0
0.05633802816901413 0 0
0.07042253521126766 0 0
0.08450704225352119 0 0
0.09859154929577472 0 0
0.1126760563380283 0 0
0.1267605633802818 0 0
0.1408450704225354 0 0
0.1549295774647889 0 0
0.1690140845070424 0 0
0.183098591549296 0 0
0.1971830985915496 0 0
0.2112676056338031 0 0
0.2253521126760567 0 0
0.2394366197183102 0 0
0.2535211267605638 0 0
0.2676056338028173 0 0
0.2816901408450709 0 0
0.2957746478873244 0 0
0.309859154929578 0 0
0.3239436619718316 0 0
0.3380281690140851 0 0
0.3521126760563387 0 0
0.3661971830985922 0 0
0.3802816901408458 0 0
0.3943661971830993 0 0
0.4084507042253529 0 0
0.4225352112676064 0 0
0.43661971830986 0 0
0.4507042253521135 0 0
0.464788732394367 0 0
0.4788732394366205 0 0
0.492957746478874 0 0
0.5070422535211274 0 0
0.5211267605633808 0 0
0.5352112676056343 0 0
0.5492957746478878 0 0
0.5633802816901413 0 0
0.5774647887323947 0 0
0.5915492957746482 0 0
0.6056338028169017 0 0
0.6197183098591551 0 0
0.6338028169014085 0 0
0.647887323943662 0 0
0.6619718309859156 0 0
0.676056338028169 0 0
0.6901408450704224 0 0
0.7042253521126759 0 0
0.7183098591549294 0 0
0.7323943661971828 0 0
0.7464788732394363 0 0
0.7605633802816898 0 0
0.7746478873239433 0 0
0.7887323943661967 0 0
0.8028169014084501 0 0
0.8169014084507036 0 0
0.8309859154929571 0 0
0.8450704225352106 0 0
0.859154929577464 0 0
0.8732394366197175 0 0
0.887323943661971 0 0
0.9014084507042245 0 0
0.915492957746478 0 0
0.9295774647887316 0 0
0.9436619718309854 0 0
0.957746478873239 0 0
0.9718309859154927 0 0
0.9859154929577464 0 0
1 0.01408450704225353 0
1 0.02816901408450706 0
1 0.0422535211267606 0
1 0.05633802816901413 0
1 0.07042253521126766 0
1 0.08450704225352119 0
1 0.09859154929577472 0
1 0.1126760563380283 0
1 0.1267605633802818 0
1 0.1408450704225354 0
1 0.1549295774647889 0
1 0.1690140845070424 0
1 0.183098591549296 0
1 0.1971830985915496 0
1 0.2112676056338031 0
1 0.2253521126760567 0
1 0.2394366197183102 0
1 0.2535211267605638 0
1 0.2676056338028173 0
1 0.2816901408450709 0
1 0.2957746478873244 0
1 0.309859154929578 0
1 0.3239436619718316 0
1 0.3380281690140851 0
1 0.3521126760563387 0
1 0.3661971830985922 0
1 0.3802816901408458 0
1 0.3943661971830993 0
1 0.4084507042253529 0
1 0.4225352112676064 0
1 0.43661971830986 0
1 0.4507042253521135 0
1 0.464788732394367 0
1 0.4788732394366205 0
1 0.492957746478874 0
1 0.5070422535211274 0
1 0.5211267605633808 0
1 0.5352112676056343 0
1 0.5492957746478878 0
1 0.5633802816901413 0
1 0.5774647887323947 0
1 0.5915492957746482 0
1 0.6056338028169017 0
1 0.6197183098591551 0
1 0.6338028169014085 0
1 0.647887323943662 0
1 0.6619718309859156 0
1 0.676056338028169 0
1 0.6901408450704224 0
1 0.7042253521126759 0
1 0.7183098591549294 0
1 0.7323943661971828 0
1 0.7464788732394363 0
1 0.7605633802816898 0
1 0.7746478873239433 0
1 0.7887323943661967 0
1 0.8028169014084501 0
1 0.8169014084507036 0
1 0.8309859154929571 0
1 0.8450704225352106 0
1 0.859154929577464 0
1 0.8732394366197175 0
1 0.887323943661971 0
1 0.9014084507042245 0
1 0.915492957746478 0
1 0.9295774647887316 0
1 0.9436619718309854 0
1 0.957746478873239 0
1 0.9718309859154927 0
1 0.9859154929577464 0
0.9859154929577465 1 0
0.9718309859154929 1 0
0.9577464788732394 1 0
0.9436619718309859 1 0
0.9295774647887324 1 0
0.9154929577464788 1 0
0.9014084507042253 1 0
0.8873239436619718 1 0
0.8732394366197183 1 0
0.8591549295774646 1 0
0.8450704225352111 1 0
0.8309859154929575 1 0
0.816901408450704 1 0
0.8028169014084504 1 0
0.7887323943661969 1 0
0.7746478873239433 1 0
0.7605633802816898 1 0
0.7464788732394363 1 0
0.7323943661971827 1 0
0.7183098591549291 1 0
0.7042253521126756 1 0
0.6901408450704221 1 0
0.6760563380281684 1 0
0.6619718309859148 1 0
0.6478873239436613 1 0
0.6338028169014078 1 0
0.6197183098591542 1 0
0.6056338028169006 1 0
0.5915492957746471 1 0
0.5774647887323936 1 0
0.5633802816901401 1 0
0.5492957746478865 1 0
0.5352112676056331 1 0
0.5211267605633796 1 0
0.5070422535211261 1 0
0.4929577464788726 1 0
0.4788732394366192 1 0
0.4647887323943657 1 0
0.4507042253521122 1 0
0.4366197183098587 1 0
0.4225352112676053 1 0
0.4084507042253518 1 0
0.3943661971830983 1 0
0.3802816901408449 1 0
0.3661971830985915 1 0
0.352112676056338 1 0
0.3380281690140844 1 0
0.323943661971831 1 0
0.3098591549295776 1 0
0.2957746478873241 1 0
0.2816901408450706 1 0
0.2676056338028172 1 0
0.2535211267605637 1 0
0.2394366197183102 1 0
0.2253521126760567 1 0
0.2112676056338033 1 0
0.1971830985915499 1 0
0.1830985915492964 1 0
0.1690140845070429 1 0
0.1549295774647894 1 0
0.140845070422536 1 0
0.1267605633802825 1 0
0.112676056338029 1 0
0.09859154929577552 1 0
0.08450704225352201 1 0
0.0704225352112684 1 0
0.05633802816901456 1 0
0.04225352112676095 1 0
0.02816901408450734 1 0
0.01408450704225361 1 0
0 0.9859154929577465 0
0 0.9718309859154929 0
0 0.9577464788732394 0
0 0.9436619718309859 0
0 0.9295774647887324 0
0 0.9154929577464788 0
0 0.9014084507042253 0
0 0.8873239436619718 0
0 0.8732394366197183 0
0 0.8591549295774646 0
0 0.8450704225352111 0
0 0.8309859154929575 0
0 0.816901408450704 0
0 0.8028169014084504 0
0 0.7887323943661969 0
0 0.7746478873239433 0
0 0.7605633802816898 0
0 0.7464788732394363 0
0 0.7323943661971827 0
0 0.7183098591549291 0
0 0.7042253521126756 0
0 0.6901408450704221 0
0 0.6760563380281684 0
0 0.6619718309859148 0
0 0.6478873239436613 0
0 0.6338028169014078 0
0 0.6197183098591542 0
0 0.6056338028169006 0
0 0.5915492957746471 0
0 0.5774647887323936 0
0 0.5633802816901401 0
0 0.5492957746478865 0
0 0.5352112676056331 0
0 0.5211267605633796 0
0 0.5070422535211261 0
0 0.4929577464788726 0
0 0.4788732394366192 0
0 0.4647887323943657 0
0 0.4507042253521122 0
0 0.4366197183098587 0
0 0.4225352112676053 0
0 0.4084507042253518 0
0 0.3943661971830983 0
0 0.3802816901408449 0
0 0.3661971830985915 0
0 0.352112676056338 0
0 0.3380281690140844 0
0 0.323943661971831 0
0 0.3098591549295776 0
0 0.2957746478873241 0
0 0.2816901408450706 0
0 0.2676056338028172 0
0 0.2535211267605637 0
0 0.2394366197183102 0
0 0.2253521126760567 0
0 0.2112676056338033 0
0 0.1971830985915499 0
0 0.1830985915492964 0
0 0.1690140845070429 0
0 0.1549295774647894 0
0 0.140845070422536 0
0 0.1267605633802825 0
0 0.112676056338029 0
0 0.09859154929577552 0
0 0.08450704225352201 0
0 0.0704225352112684 0
0 0.05633802816901456 0
0 0.04225352112676095 0
0 0.02816901408450734 0
0 0.01408450704225361 0
0.4999999999999956 0.01219754089835545 0
0.4999999999999993 0.9878024591016277 0
0.9903814249123937 0.5003167126945817 0
0.009598558452927786 0.5002820428663214 0
0.9873520588037447 0.5999914744403221 0
0.401408450704225 0.9878024591016277 0
0.01263791277322679 0.4000840866095589 0
0.5985915492957723 0.01219754089836189 0
0.0126988621735652 0.6000796721601948 0
0.5985915492957739 0.9878024591016277 0
0.9873620872267704 0.4000840866095774 0
0.4014084507042247 0.01219754089836467 0
0.0129933593203781 0.6983396426078298 0
0.6971729153710534 0.987843807076334 0
0.3028169014084504 0.01219754089836689 0
0.6971830985915481 0.01219754089837116 0
0.9872035027999929 0.3170583903742211 0
0.9858867287995181 0.6832136504992401 0
0.316929921468076 0.9878685769904695 0
0.0125402321508663 0.3170737812307063 0
0.9873484393659375 0.7661779983118308 0
0.2324045494176734 0.9878438069781607 0
0.0111880385389177 0.2331314965021884 0
0.9882440492315071 0.2314670393750915 0
0.7816901408450685 0.01219754089837127 0
0.0141697932257307 0.7812094682301438 0
0.78169014084507 0.9878024591016277 0
0.2183098591549277 0.01219754089836644 0
0.9873672791327956 0.8373985620146474 0
0.1619718309859163 0.9878189887112721 0
0.01198264006356586 0.16234405015039 0
0.987643841886517 0.1622095993077676 0
0.8521126760563311 0.01219754089836983 0
0.8521126760563379 0.9878024591016277 0
0.01344513065554087 0.8530214122625774 0
0.1478873239436607 0.01219754089836916 0
0.9878024591016277 0.8943661971830977 0
0.1056338028169023 0.9878024591016277 0
0.01219754089837238 0.1056338028169023 0
0.9878024591016277 0.1056338028169015 0
0.9084507042253461 0.01219754089836939 0
0.9084608874458397 0.9878438069781628 0
0.01171990945071943 0.9086593000134757 0
0.09154929577464826 0.01219754089837222 0
0.6549438339734752 0.9878438166565651 0
0.011486852906745 0.2748678487423311 0
0.01339248107860919 0.6566680503291284 0
0.5563380281690132 0.9878024591016277 0
0.9885131470932589 0.2748678487423381 0
0.4577464788732403 0.01219754089837233 0
0.9866163191404114 0.4416253594943634 0
0.01048223714132712 0.5420892422472192 0
0.2746764003413147 0.9878685769904674 0
0.3591549295774556 0.01219754089836622 0
0.9887737641897738 0.3589429561725474 0
0.5422535211267548 0.01219754089835989 0
0.7394468029388002 0.98784380707633 0
0.7394366197183062 0.01219754089837161 0
0.9894963683949933 0.7256127865659976 0
0.2605633802816893 0.01219754089836317 0
0.9866132362057489 0.5584313129818008 0
0.4436619718309854 0.9878024591016277 0
0.01338368085957953 0.4416253594943485 0
0.6549295774647867 0.01219754089837111 0
0.01259778011765922 0.739123913703981 0
0.01055314318852835 0.3595749587549361 0
0.9892226181133573 0.6406525843860327 0
0.3591834425948374 0.9878685769904721 0
0.9874315805796371 0.06422130539042392 0
0.9874430085521805 0.9358526824274368 0
0.06338028169014143 0.9878024591016276 0
0.01256841942037579 0.06422130539042137 0
0.9507042253521125 0.9878024591016277 0
0.01255180835718384 0.9509423592289157 0
0.950704225352112 0.01219754089837249 0
0.04929577464788765 0.01219754089836694 0
0.8098693381500679 0.9878438069781635 0
0.01265496749149253 0.5695590169858918 0
0.8802816901408447 0.9878024591016277 0
0.01190325269458903 0.8098591549295775 0
0.8239436619718273 0.01219754089837211 0
0.9872957163119197 0.204100014229386 0
0.4295774647887267 0.01219754089836711 0
0.0129098437357888 0.879532125476028 0
0.5704225352112648 0.01219754089836267 0
[...]
POINT_DATA 5988 
SCALARS sample_scalars float 1 
LOOKUP_TABLE my_table 
0.3894183423086506
0.965657776549278
-0.9568933495204898
0.965657776549278
0.4424436927352705
0.4974102738049478
0.5537555298643414
0.6108168441483225
0.6678254985601947
0.7239027153839966
0.7780584217267671
0.8291934326683196
0.876105787588245
0.9175019886547121
0.952013872789678
0.9782217896681439
0.9946846492208163
0.9999772336078975
0.9927349324690049
0.971705749867463
0.9358090428841234
0.884199985318047
0.8163382106559449
0.7320584881661861
0.6316406443062181
0.5158752872597044
0.3861212638146033
0.24435022353479938
0.09317324349907494
-0.06415575575100448
-0.2237650239105694
-0.3812232517627872
-0.5316351186452211
-0.6697768543301543
-0.7902727582449437
-0.8878113001714918
-0.9573966121235538
-0.9946279480663929
-0.9959961708841427
-0.9591827220528559
-0.8833431012303611
-0.7693539535494462
-0.6200008041580218
-0.44008269389650745
-0.23641085770368242
-0.017681509324479202
0.20579197435766367
0.42249450600937305
0.6202693677327333
0.7870077971511427
0.9114393828499552
0.9839804409585639
0.9975840684245765
0.9485242150306156
0.8370385219735546
0.6677525105948281
0.44981249591278216
0.19666750965783777
-0.07453788794400637
-0.34396801476075095
-0.5904686594501546
-0.7932370079517113
-0.9336751588135894
-0.9972741502683413
-0.9753449950053528
-0.8663972539482355
-0.6769692780960996
-0.42174125530269574
-0.12281436951883037
0.19188440782402674
0.49101669685208477
0.742904183583394
0.9189887453682172
0.9973212439655456
0.8237258910715453
0.5842632908985395
0.2725334343216903
-0.07581632028358803
-0.4184798460590489
-0.7114926732315707
-0.9149713243803449
-0.9988685085768895
-0.947913409781625
-0.7649095463565789
-0.47169697769497343
-0.10735300767761087
0.2764144818589656
0.6222785943289396
0.8758559169070972
0.9945900399173037
0.9555060861320885
0.7603890381267571
0.4372023497517624
0.03708333575118922
-0.37302702165212487
-0.7212450653421066
-0.9434522284552669
-0.9956449719549808
-0.8635176580911647
-0.5671201075686769
-0.15915928739043367
0.28335863228100755
0.6731021347851792
0.9296507838091012
0.9966641279760897
0.855279233251782
0.5304392610752986
0.08806610738559192
-0.37715770395632103
-0.7614834490862785
-0.9753803828764168
-0.9652360852949166
-0.7281160578639573
-0.31535086079928665
0.1769475734566635
0.6292301195378128
0.927327587043083
0.9919432415367093
0.8011363162381291
0.39919947644985154
-0.1116385987988437
-0.5958749013859808
-0.9202836905911548
-0.9912444308715496
-0.7833173900560287
-0.35005702335797295
0.1875705363518815
0.6735312466456974
0.961725410165165
0.9608736114684199
0.6653399486798716
0.1610866491674843
-0.39708029479446544
-0.8318461701408433
-0.9999468464055521
-0.8409732988857823
-0.40143646269283223
0.17595676855230855
0.696714647349962
0.9796488791753978
0.9211493613496154
0.5355772349396277
-0.04459371689683658
-0.6118327958157297
-0.6118327958157297
-0.04459371689685788
0.5355772349396156
0.9211493613496101
0.9796488791754062
0.6967146473499772
0.1759567685523225
-0.4014364626928127
-0.8409732988857708
-0.9999468464055524
-0.831846170140851
-0.39708029479447854
0.16108664916747029
0.665339948679861
0.960873611468416
0.961725410165165
0.6735312466456974
0.1875705363518815
-0.3500570233579796
-0.7833173900560376
-0.9912444308715515
-0.9202836905911492
-0.5958749013859636
-0.11163859879881546
0.3991994764498777
0.8011363162381461
0.9919432415367139
0.9273275870430698
0.6292301195377852
0.17694757345662507
-0.3153508607993305
-0.7281160578639914
-0.9652360852949287
-0.9753803828764066
-0.7614834490862508
-0.3771577039562783
0.08806610738563794
0.5304392610753348
0.855279233251804
0.9966641279760934
0.929650783809088
0.673102134785153
0.28335863228097347
-0.15915928739046525
-0.5671201075686946
-0.8635176580911754
-0.9956449719549824
-0.9434522284552598
-0.7212450653420968
-0.37302702165211504
0.037083335751203414
0.4372023497517721
0.7603890381267593
0.9555060861320887
0.9945900399173035
0.8758559169071042
0.6222785943289479
0.2764144818589792
-0.10735300767759673
-0.47169697769496405
-0.7649095463565697
-0.9479134097816193
-0.9988685085768904
-0.914971324380352
-0.7114926732315832
-0.41847984605906496
-0.07581632028359157
0.2725334343216783
0.5842632908985295
0.8237258910715453
0.9973212439655456
0.9189887453682186
0.7429041835834012
0.4910166968520924
0.19188440782404592
-0.12281436951881453
-0.4217412553026813
-0.6769692780960893
-0.8663972539482284
-0.9753449950053495
-0.9972741502683422
-0.9336751588135919
-0.7932370079517166
-0.5904686594501631
-0.34396801476075595
-0.07453788794400637
0.19666750965783777
0.44981249591278216
0.6677525105948281
0.8370385219735585
0.9485242150306185
0.9975840684245769
0.9839804409585625
0.9114393828499493
0.7870077971511359
0.6202693677327243
0.42249450600936017
0.20579197435764632
-0.017681509324496962
-0.23641085770369968
-0.44008269389652577
-0.6200008041580378
-0.769353953549458
-0.8833431012303701
-0.9591827220528613
-0.9959961708841446
-0.9946279480663909
-0.9573966121235485
-0.8878113001714839
-0.7902727582449335
-0.6697768543301441
-0.5316351186452097
-0.38122325176277483
-0.22376502391055988
-0.06415575575099561
0.09317324349908336
0.24435022353480623
0.38612126381460987
0.5158752872597071
0.6316406443062201
0.7320584881661879
0.8163382106559454
0.8841999853180474
0.9358090428841234
0.9717057498674632
0.9927349324690048
0.9999772336078975
0.9946846492208167
0.9782217896681444
0.9520138727896789
0.9175019886547136
0.8761057875882473
0.8291934326683219
0.77805842172677
0.7239027153839999
0.6678254985601976
0.6108168441483244
0.5537555298643428
0.49741027380494895
0.4424436927352709
-0.9353975469016493
-0.21275669065224917
-0.3049563352733963
-0.9448085939251327
0.5024024258888614
0.12514186608302133
-0.5744297197017273
0.2858922696493461
0.31693329420565697
0.47500617039105525
0.06940048037508639
-0.5835468704907919
0.9001835325251959
-0.8207057968535808
0.4698440984253593
0.9137641308013422
-0.5955406247427532
-0.3722546022304603
-0.6059600441896217
0.33072551304587905
0.4472940096141563
0.9645517744993449
0.9193718988589684
0.9602992012742271
-0.4365101745025505
-0.4635722727397773
0.8769781531034695
0.9601948583474818
-0.16002792950196848
-0.5850646270225354
0.9857722928827495
-0.581187667515897
-0.9435954592834315
-0.6913714702840977
-0.931940131914611
0.9625492768933083
-0.5675839611019886
-0.8505940562529929
0.8467920459973413
-0.8519585118674441
-0.008959410535703257
-0.029698934487500002
-0.0151115424632388
0.7971390136899886
0.5532025969005404
0.7002545513796907
0.9615582414131666
-0.8286412971547445
0.5389609062027726
-0.974398480894253
0.9855184271472563
-0.5803691623543666
0.5600049491927138
-0.12239679065725552
-0.915590317228209
-0.5571691812268947
-0.5150607470100873
0.3604336404127192
-0.8408448103179925
0.7872515194389323
-0.8117471583452661
0.9886298077392626
-0.9118042628598847
0.9431526944056781
0.35844795732097573
-0.10850363596091704
0.8669381781303142
-0.9243390043986327
0.03919706191835316
0.8867970561469752
0.05175061053303695
0.6933629435286603
0.9656066216307578
0.825565796036974
0.814676521713194
0.6317127257417111
0.7875748283180971
-0.1638748299367948
-0.919016510725695
-0.8462641262641004
-0.9642600010695499
0.4889258886092116
-0.8284152021308174
-0.5913038494276912
-0.15776705882801878
-0.9756487152181819
-0.9142595262737745
0.9978989953747787
0.8731015874268416
0.1387503081550072
0.9978701371124699
0.9874661404471632
0.8918974125625457
0.1899660980545865
0.6845353586086576
0.6846583633152216
-0.9125797734053133
0.658894402150129
0.6844680907781279
-0.9619486851738339
-0.9777538226719267
-0.998083398603965
0.9261694782596375
-0.5895748736355273
0.7104564288028777
0.6580941062087272
0.675573330394786
0.5713688436492729
0.998404778380216
0.15786477618455916
0.517051145213517
0.9952031907284558
0.958056720976651
0.9815156073705635
0.8755003005878471
0.992243805345087
0.9247920166899741
0.9891343787661611
0.9612609088873038
0.971322520968859
0.9839134894364948
0.938681117694796
0.9921079510024906
0.8915620966018194
0.9854924908716183
0.8304981685847136
0.9639440229691587
0.7562124924116549
0.9275745548610953
0.669685094337383
0.8767440962345362
0.572137451563884
0.8120578067291486
0.4650021882198093
0.7343577772441634
0.34989922778222776
0.6447138532836897
0.2286144836897265
0.5444123740266541
0.10307558550611035
0.43494116872117894
-0.024677131451541157
0.3179702874114354
-0.15252346183577428
0.19532877643077878
-0.2782985659339273
0.0689779810786505
-0.39982979135480806
-0.05901825072360227
-0.5149746546978057
-0.18652613549298558
-0.621659537138943
-0.31137690318721445
-0.7179185134494613
-0.4314036441028156
-0.801931635070978
-0.5444794825202762
-0.8720619322545423
-0.6485564360582821
-0.92689037461759
-0.7417042662272986
-0.9652480265368832
-0.8221485871290691
-0.9862446493105737
-0.8883074750292418
-0.989293034656851
-0.9388258120025047
-0.9741284039841442
-0.9726066027827667
-0.9408222749758144
-0.9888385260085326
-0.8897902807681223
-0.9870190196025983
-0.8217935262685895
-0.9669722551261929
-0.9495578443138311
-0.9787036004080192
-0.92886142737603
-0.9901347009811535
-0.8731948727245094
-0.9834345904491515
-0.8008256318892446
-0.9585173237123686
-0.7129441887495966
-0.9156382436235937
-0.9835270230174998
-0.9901272779060455
-0.8765241968637464
-0.9302054868860667
-0.6556307663099867
-0.7479233424192104
-0.3528063461518943
-0.4707061153444381
-0.008748644170355646
-0.1367045149531767
0.3328624204402725
0.21081853122296448
0.6309662695652558
0.529234127060271
0.8518811265228446
0.7816837206356522
0.9727283575840695
0.9410351604072702
0.983258229862169
0.9923092893568879
0.8860427369730182
0.9334609263602968
0.6952007707115576
0.7746113484898693
0.43397092958231887
0.418568220927115
-0.8553983743150033
0.5359992741287158
0.13153738978797996
0.24502997480396993
0.6309768277857745
-0.1804564429687897
0.35567906163672497
0.7174640001125588
0.46191650942938706
0.7941118768826393
0.5622010217717083
0.859685132536203
0.6550414318352884
0.9130841017247401
0.7390201660207326
0.9533656165614419
0.8128165267563637
0.9797622149091602
0.4894344060388902
0.8752294178928514
0.9916993305268067
0.9251991242731887
0.9888100885276955
0.9618277511092088
0.970947349646723
0.9843979292861895
0.8472821753688167
0.9381926744142863
0.9923894000874605
0.32639869324218335
0.8908619135072822
0.9854931074274904
0.9363552955333527
0.9692794381924945
0.9085478319856133
0.7799132647611574
0.84775009940005
0.9879857660901924
-0.4624716878962989
0.5430708643110819
0.9036166471153
0.9920093418073482
0.9465374717660013
0.9810997375701815
0.9757092222216287
0.95523146770914
0.9905182485236154
0.9146111787498368
0.9905558958604455
0.9164234771819633
0.9557314843480333
0.7446728634903284
0.975631115328404
0.9811067084719624
0.9457800565687962
0.9919890325498645
0.1617498303202681
0.9012723410773592
0.9880269910979198
0.8426137561764402
0.9690896038413289
0.7705451580805389
0.5138547357214591
0.9352751071137269
0.9854626065050442
0.9923929416785047
0.8936509298811959
0.9391801750648234
0.686037427771829
0.7072185918964993
0.7851599591100237
0.7328044630592552
-0.40697510428905165
0.4489992746414188
0.550106700909043
0.8521733686658908
-0.5595216145432976
0.6188539962722165
0.1479506507106285
0.6439519061991743
0.9071411031354295
0.7291068533667554
0.9490994252037482
0.8042374928728845
0.9772580086882859
0.9910507483398809
-0.9051660843252011
0.8681265741865065
0.9910173987498665
0.9196955587081656
0.9899841216916087
0.9111380662983032
0.5760263287050221
0.9580252389889304
0.8552040452295685
0.63603747051269
-0.9823594307440903
0.5348188371220503
0.21735066667929112
0.915479599847901
0.09150874386106611
-0.2563026807855442
0.03327279321023443
-0.27526459680069176
-0.3821236075468715
-0.6429392402540817
-0.7236938456671287
-0.8943552789052454
-0.9366874567528399
-0.9934395972907734
-0.9924182588905375
-0.9320340684978009
-0.8900792953942429
-0.7280153025785175
-0.653658001157069
-0.9636353861852668
-0.4194499474418155
-0.32529812734467833
-0.05642316499562704
0.04320019918854562
-0.22825936718973974
0.14187998934758184
-0.1293789422040818
0.2386521815806222
-0.029694613133831982
0.33259712121796753
0.06977424137084755
0.4228474565568453
0.16803680665616677
0.5085951535280736
0.264140247496437
0.5890975617270376
0.35717828947523295
0.663682514368331
0.4462989124036486
0.7317524570383477
0.8806063430402196
0.9204198665557566
0.7927876118880606
0.9519724866712366
0.846348194738166
0.9751274489313821
0.8920757123425254
0.9898267066057767
0.9872759161904084
0.9711547029172447
0.9960884690125339
0.9472791459573123
0.9940041237529028
0.9159779039970192
0.983734598972585
0.877631813444294
0.9655062336840077
0.8326685306170879
0.9396062252110335
0.7815570044179362
0.9063777229904119
0.7248018428352714
0.8662146373368704
0.6629376336594175
0.8195562304180029
0.5965232763839851
0.766881554664226
0.5261363784616309
0.7087038012329925
0.3183594284894037
0.45236776497203274
0.6455646180297511
0.37581614640668454
0.5780284532331664
0.2970829847454274
0.5066769763487273
0.6799833800126458
0.21676759334790952
0.4321036245893564
-0.005999833857639958
0.13546250146382652
0.35490831791569816
0.8885723792561895
0.053749109420923986
0.27569238141860236
0.5592591458317708
0.48698552091458686
0.195053708940447
0.411650205804487
0.6754479903856163
0.6098804312122387
0.8291969773286028
0.7776621890469585
0.9374590227104056
0.9037180700020135
0.9914221382985278
0.9784190844296143
0.9850682974108147
0.9946320334423407
0.9159159595809747
0.9485036106391179
0.7855963674176836
0.8401065355960872
0.6001873670948458
0.6738706803395619
0.3702358720112796
0.4587266839016816
0.11041579399976573
0.20790212705933264
-0.16120738461424416
-0.061668459065644075
-0.4243018217612989
-0.33032888859941145
-0.6577419380826319
-0.577054337918636
0.5424006803760945
0.113582196950448
0.9575478646672162
-0.8413437175345405
-0.781103043443084
-0.4906285655198529
-0.7126111634520903
0.644310361536409
-0.3994687249891945
-0.6367386811244738
-0.9577359724719275
0.9796204581277265
0.80601143286522
-0.3046043582709719
-0.554415845649833
0.9670508344409658
-0.20707818436937184
-0.466619960084104
-0.7635217445394348
-0.6929620126376962
-0.913010350178675
-0.8662648227109904
0.3077532321190996
-0.9877859028176114
-0.9698217889977158
-0.7317251941247097
0.2777099929527973
0.21296611118696793
-0.22935374756061483
-0.8101252248469158
-0.9408735861747489
-0.37873783095990726
-0.6765029995476426
-0.03634755805841664
0.5466507537283013
-0.780706772727248
-0.9783207688491903
-0.7661718048285772
-0.9396304235706671
-0.8894282107169167
-0.9891707925611254
-0.9864735186517837
-0.9041044567886818
-0.9507859616670574
-0.6921305346575083
-0.7831643926495505
-0.3795936764763983
-0.5032721423233171
-0.008957981011371602
-0.14814473335439257
0.36643431230692786
0.2320937262088076
0.6897995267801605
0.5809527165400576
0.9095908012918293
0.843934156087328
0.9881264732133377
0.9773437745053342
0.9087133176401718
0.9561352120718026
0.679879129264176
0.7793461122025573
0.3356597580011377
0.4719200880134395
-0.06854039264970163
0.08219850988056554
0.5969917589503505
0.23054418618373065
-0.324937984558107
-0.17838842200170713
0.37309621895153955
-0.028118594211055965
-0.5596716363910612
-0.4278293301878471
0.12232315296737602
-0.2862377195122143
-0.7554812629235401
-0.6481103349849374
-0.9502595832137654
-0.8974442414909095
-0.5254899558623751
-0.8228026932894823
-0.9859051833770711
-0.974182662093282
-0.8928561190005571
-0.9479136170823262
-0.9383437266421595
-0.9788660049221756
-0.7442333372863377
-0.837920258586229
-0.9851699841764828
-0.9099174668084429
-0.5374401501379771
-0.6631525117215147
-0.9586051221183467
-0.7713490109690566
-0.28765833375386335
-0.4360884341961911
0.14671662036847039
-0.013904967741889516
0.5553526779002328
0.4142514467881428
0.8551747493735284
0.7627104327747289
0.9819468260654469
0.9584203869066668
0.9049361878104237
0.9570011507628601
0.6355015732593106
0.7539119464457954
-0.5726746256175782
0.2271244898731278
0.9816177936790049
0.8501111212710553
0.9783374505312004
0.9215226413055829
0.9475074254697189
0.9663223530420499
0.8902440897372856
0.9834748145840124
0.7819868782348013
0.8717667027301098
0.972746027429505
0.9361944150373644
0.4290306626634082
0.9346929105947259
0.9736546129432384
0.8706305935255069
0.9833263297627217
0.8266719153669357
0.7825792007650313
0.4429093483403106
0.9651894578701614
0.891599055712842
0.6731923228643986
0.9200081386873579
0.5456698031479955
0.8492923636780062
0.4036578103473608
0.7552396097183625
0.25113940764162385
-0.18500237011631457
0.6406588321406509
0.09231896744991247
0.5088795493707913
-0.06849618013686905
0.9556889007192695
0.3636490679836424
-0.22701353484242995
0.2090211126483099
-0.3790694662918331
0.04923923976016463
-0.5207365523913267
0.6068809223993572
-0.11138157353113669
-0.6484215635558733
-0.7311708558344325
-0.7453517905142379
-0.9014308055705212
-0.2685718588451373
-0.7589518057307879
0.4632542419306063
0.7607333622804844
0.6825852518205134
0.6816901693109061
0.9923304798214717
0.16213734620756706
-0.827392121175349
-0.7645745479408815
0.7442908748359448
-0.41821998129971927
-0.8496479557768907
-0.0029783148767221694
-0.9730732435593398
-0.5874641293549381
0.493750708378085
0.977497146179344
0.1912351788275254
-0.9538648483253626
-0.6727821323178202
-0.8520911751389385
-0.9840584997265551
-0.9631034268380254
-0.9830911694710716
-0.9935050859609089
0.6160509799991112
-0.48485063555664304
0.1665084863025916
-0.5564770196272356
-0.9183819896154665
0.677569981417115
-0.8952614659462937
-0.9373689055807801
0.9919130381684953
-0.29953765815768707
-0.7935498833044792
0.8890528305177854
-0.6798517444809133
-0.9636193029775162
-0.962304408940517
-0.9168271111411552
-0.9844446328629155
-0.8489720238064937
0.9272534751562863
-0.9530578910391526
-0.8259714091559389
-0.7594118603155904
-0.5303000353486548
-0.4319119069601972
-0.7864996567093727
0.06456987381179977
0.16292144094392144
0.41821091409189626
0.5042156421091765
0.7106753804231513
0.7740177268890704
0.9085423268545388
0.9427607615688574
0.9934030072085919
-0.9805718534507788
-0.7606169075788518
0.989031882035158
0.9958919516192559
0.8427640345066482
0.6042299776503081
-0.6843209181666652
-0.28390521127765106
-0.7251461007841303
-0.7963274798959198
-0.9680199687537859
-0.8573620540335671
-0.13626497036018867
-0.022228388173205625
0.9864874783967008
-0.9675700057678752
0.441499199585628
0.13974679913482324
0.025022080792897
-0.2830909770887864
-0.38960437070791865
-0.6490338105524456
-0.7291423792402748
-0.5603687020550003
0.9867149581475138
-0.9870118251822494
-0.9076444468380628
0.9962120759834958
0.9622166891447557
0.9686190799120589
0.9815727607814321
0.8715265106714051
0.9108611773967232
0.7320950595839739
0.7881911169503057
0.5541255631799353
0.6230403956201728
0.34921818800624504
0.4265966121325397
0.1295386869774979
0.2109112504379016
-0.09293972346200786
-0.011890410950836688
-0.3070832097793881
-0.23030040204416846
-0.5031088441221984
-0.43399105466620064
-0.6729498765576357
-0.6142343155508267
-0.8104752672421106
-0.7641739360819723
-0.9115732420825813
-0.8789571880953084
-0.9741154786873628
-0.9557404910685368
-0.9978229680294748
-0.993588641869624
-0.9840568142516255
-0.9932903383503086
-0.9355575361392869
-0.9571136495192807
-0.8561551956985886
-0.8885243641577011
-0.7504703048691002
-0.7918881445205865
-0.6236223436664026
-0.6721745223855281
-0.480959218628922
-0.5346773735830496
-0.3278174024243038
-0.38476291840890864
-0.5867319644017766
-0.440745781921119
-0.2276527830232651
-0.28568128359092715
-0.4955135325377469
-0.34317055142995545
-0.12657385983900105
-0.18498219506194918
-0.39987896259034145
-0.24325227810584213
-0.02573664434534582
-0.08386650540842704
-0.3011560059731012
0.1302666065231946
-0.14223251769464562
-0.35845708082124694
-0.20062230646534995
-0.4149118659590079
-0.25881409719845117
-0.4702703392621329
-0.31657740773575344
-0.5242771438728023
-0.09948997060632035
-0.3736738327652502