# vtk DataFile Version 2.0
untitled, Created by Gmsh 4.9.5 
ASCII
DATASET UNSTRUCTURED_GRID
POINTS 5988 double
0 0 0
1 0 0
1 1 0
0 1 0
0.01408450704225353 0 0
0.02816901408450706 0 0
0.0422535211267606 0 0
0.05633802816901413 0 0
0.07042253521126766 0 0
0.08450704225352119 0 0
0.09859154929577472 0 0
0.1126760563380283 0 0
0.1267605633802818 0 0
0.1408450704225354 0 0
0.1549295774647889 0 0
0.1690140845070424 0 0
0.183098591549296 0 0
0.1971830985915496 0 0
0.2112676056338031 0 0
0.2253521126760567 0 0
0.2394366197183102 0 0
0.2535211267605638 0 0
0.2676056338028173 0 0
0.2816901408450709 0 0
0.2957746478873244 0 0
0.309859154929578 0 0
0.3239436619718316 0 0
0.3380281690140851 0 0
0.3521126760563387 0 0
0.3661971830985922 0 0
0.3802816901408458 0 0
0.3943661971830993 0 0
0.4084507042253529 0 0
0.4225352112676064 0 0
0.43661971830986 0 0
0.4507042253521135 0 0
0.464788732394367 0 0
0.4788732394366205 0 0
0.492957746478874 0 0
0.5070422535211274 0 0
0.5211267605633808 0 0
0.5352112676056343 0 0
0.5492957746478878 0 0
0.5633802816901413 0 0
0.5774647887323947 0 0
0.5915492957746482 0 0
0.6056338028169017 0 0
0.6197183098591551 0 0
0.6338028169014085 0 0
0.647887323943662 0 0
0.6619718309859156 0 0
0.676056338028169 0 0
0.6901408450704224 0 0
0.7042253521126759 0 0
0.7183098591549294 0 0
0.7323943661971828 0 0
0.7464788732394363 0 0
0.7605633802816898 0 0
0.7746478873239433 0 0
0.7887323943661967 0 0
0.8028169014084501 0 0
0.8169014084507036 0 0
0.8309859154929571 0 0
0.8450704225352106 0 0
0.859154929577464 0 0
0.8732394366197175 0 0
0.887323943661971 0 0
0.9014084507042245 0 0
0.915492957746478 0 0
0.9295774647887316 0 0
0.9436619718309854 0 0
0.957746478873239 0 0
0.9718309859154927 0 0
0.9859154929577464 0 0
1 0.01408450704225353 0
1 0.02816901408450706 0
1 0.0422535211267606 0
1 0.05633802816901413 0
1 0.07042253521126766 0
1 0.08450704225352119 0
1 0.09859154929577472 0
1 0.1126760563380283 0
1 0.1267605633802818 0
1 0.1408450704225354 0
1 0.1549295774647889 0
1 0.1690140845070424 0
1 0.183098591549296 0
1 0.1971830985915496 0
1 0.2112676056338031 0
1 0.2253521126760567 0
1 0.2394366197183102 0
1 0.2535211267605638 0
1 0.2676056338028173 0
1 0.2816901408450709 0
1 0.2957746478873244 0
1 0.309859154929578 0
1 0.3239436619718316 0
1 0.3380281690140851 0
1 0.3521126760563387 0
1 0.3661971830985922 0
1 0.3802816901408458 0
1 0.3943661971830993 0
1 0.4084507042253529 0
1 0.4225352112676064 0
1 0.43661971830986 0
1 0.4507042253521135 0
1 0.464788732394367 0
1 0.4788732394366205 0
1 0.492957746478874 0
1 0.5070422535211274 0
1 0.5211267605633808 0
1 0.5352112676056343 0
1 0.5492957746478878 0
1 0.5633802816901413 0
1 0.5774647887323947 0
1 0.5915492957746482 0
1 0.6056338028169017 0
1 0.6197183098591551 0
1 0.6338028169014085 0
1 0.647887323943662 0
1 0.6619718309859156 0
1 0.676056338028169 0
1 0.6901408450704224 0
1 0.7042253521126759 0
1 0.7183098591549294 0
1 0.7323943661971828 0
1 0.7464788732394363 0
1 0.7605633802816898 0
1 0.7746478873239433 0
1 0.7887323943661967 0
1 0.8028169014084501 0
1 0.8169014084507036 0
1 0.8309859154929571 0
1 0.8450704225352106 0
1 0.859154929577464 0
1 0.8732394366197175 0
1 0.887323943661971 0
1 0.9014084507042245 0
1 0.915492957746478 0
1 0.9295774647887316 0
1 0.9436619718309854 0
1 0.957746478873239 0
1 0.9718309859154927 0
1 0.9859154929577464 0
0.9859154929577465 1 0
0.9718309859154929 1 0
0.9577464788732394 1 0
0.9436619718309859 1 0
0.9295774647887324 1 0
0.9154929577464788 1 0
0.9014084507042253 1 0
0.8873239436619718 1 0
0.8732394366197183 1 0
0.8591549295774646 1 0
0.8450704225352111 1 0
0.8309859154929575 1 0
0.816901408450704 1 0
0.8028169014084504 1 0
0.7887323943661969 1 0
0.7746478873239433 1 0
0.7605633802816898 1 0
0.7464788732394363 1 0
0.7323943661971827 1 0
0.7183098591549291 1 0
0.7042253521126756 1 0
0.6901408450704221 1 0
0.6760563380281684 1 0
0.6619718309859148 1 0
0.6478873239436613 1 0
0.6338028169014078 1 0
0.6197183098591542 1 0
0.6056338028169006 1 0
0.5915492957746471 1 0
0.5774647887323936 1 0
0.5633802816901401 1 0
0.5492957746478865 1 0
0.5352112676056331 1 0
0.5211267605633796 1 0
0.5070422535211261 1 0
0.4929577464788726 1 0
0.4788732394366192 1 0
0.4647887323943657 1 0
0.4507042253521122 1 0
0.4366197183098587 1 0
0.4225352112676053 1 0
0.4084507042253518 1 0
0.3943661971830983 1 0
0.3802816901408449 1 0
0.3661971830985915 1 0
0.352112676056338 1 0
0.3380281690140844 1 0
0.323943661971831 1 0
0.3098591549295776 1 0
0.2957746478873241 1 0
0.2816901408450706 1 0
0.2676056338028172 1 0
0.2535211267605637 1 0
0.2394366197183102 1 0
0.2253521126760567 1 0
0.2112676056338033 1 0
0.1971830985915499 1 0
0.1830985915492964 1 0
0.1690140845070429 1 0
0.1549295774647894 1 0
0.140845070422536 1 0
0.1267605633802825 1 0
0.112676056338029 1 0
0.09859154929577552 1 0
0.08450704225352201 1 0
0.0704225352112684 1 0
0.05633802816901456 1 0
0.04225352112676095 1 0
0.02816901408450734 1 0
0.01408450704225361 1 0
0 0.9859154929577465 0
0 0.9718309859154929 0
0 0.9577464788732394 0
0 0.9436619718309859 0
0 0.9295774647887324 0
0 0.9154929577464788 0
0 0.9014084507042253 0
0 0.8873239436619718 0
0 0.8732394366197183 0
0 0.8591549295774646 0
0 0.8450704225352111 0
0 0.8309859154929575 0
0 0.816901408450704 0
0 0.8028169014084504 0
0 0.7887323943661969 0
0 0.7746478873239433 0
0 0.7605633802816898 0
0 0.7464788732394363 0
0 0.7323943661971827 0
0 0.7183098591549291 0
0 0.7042253521126756 0
0 0.6901408450704221 0
0 0.6760563380281684 0
0 0.6619718309859148 0
0 0.6478873239436613 0
0 0.6338028169014078 0
0 0.6197183098591542 0
0 0.6056338028169006 0
0 0.5915492957746471 0
0 0.5774647887323936 0
0 0.5633802816901401 0
0 0.5492957746478865 0
0 0.5352112676056331 0
0 0.5211267605633796 0
0 0.5070422535211261 0
0 0.4929577464788726 0
0 0.4788732394366192 0
0 0.4647887323943657 0
0 0.4507042253521122 0
0 0.4366197183098587 0
0 0.4225352112676053 0
0 0.4084507042253518 0
0 0.3943661971830983 0
0 0.3802816901408449 0
0 0.3661971830985915 0
0 0.352112676056338 0
0 0.3380281690140844 0
0 0.323943661971831 0
0 0.3098591549295776 0
0 0.2957746478873241 0
0 0.2816901408450706 0
0 0.2676056338028172 0
0 0.2535211267605637 0
0 0.2394366197183102 0
0 0.2253521126760567 0
0 0.2112676056338033 0
0 0.1971830985915499 0
0 0.1830985915492964 0
0 0.1690140845070429 0
0 0.1549295774647894 0
0 0.140845070422536 0
0 0.1267605633802825 0
0 0.112676056338029 0
0 0.09859154929577552 0
0 0.08450704225352201 0
0 0.0704225352112684 0
0 0.05633802816901456 0
0 0.04225352112676095 0
0 0.02816901408450734 0
0 0.01408450704225361 0
0.4999999999999956 0.01219754089835545 0
0.4999999999999993 0.9878024591016277 0
0.9903814249123937 0.5003167126945817 0
0.009598558452927786 0.5002820428663214 0
0.9873520588037447 0.5999914744403221 0
0.401408450704225 0.9878024591016277 0
0.01263791277322679 0.4000840866095589 0
0.5985915492957723 0.01219754089836189 0
0.0126988621735652 0.6000796721601948 0
0.5985915492957739 0.9878024591016277 0
0.9873620872267704 0.4000840866095774 0
0.4014084507042247 0.01219754089836467 0
0.0129933593203781 0.6983396426078298 0
0.6971729153710534 0.987843807076334 0
0.3028169014084504 0.01219754089836689 0
0.6971830985915481 0.01219754089837116 0
0.9872035027999929 0.3170583903742211 0
0.9858867287995181 0.6832136504992401 0
0.316929921468076 0.9878685769904695 0
0.0125402321508663 0.3170737812307063 0
0.9873484393659375 0.7661779983118308 0
0.2324045494176734 0.9878438069781607 0
0.0111880385389177 0.2331314965021884 0
0.9882440492315071 0.2314670393750915 0
0.7816901408450685 0.01219754089837127 0
0.0141697932257307 0.7812094682301438 0
0.78169014084507 0.9878024591016277 0
0.2183098591549277 0.01219754089836644 0
0.9873672791327956 0.8373985620146474 0
0.1619718309859163 0.9878189887112721 0
0.01198264006356586 0.16234405015039 0
0.987643841886517 0.1622095993077676 0
0.8521126760563311 0.01219754089836983 0
0.8521126760563379 0.9878024591016277 0
0.01344513065554087 0.8530214122625774 0
0.1478873239436607 0.01219754089836916 0
0.9878024591016277 0.8943661971830977 0
0.1056338028169023 0.9878024591016277 0
0.01219754089837238 0.1056338028169023 0
0.9878024591016277 0.1056338028169015 0
0.9084507042253461 0.01219754089836939 0
0.9084608874458397 0.9878438069781628 0
0.01171990945071943 0.9086593000134757 0
0.09154929577464826 0.01219754089837222 0
0.6549438339734752 0.9878438166565651 0
0.011486852906745 0.2748678487423311 0
0.01339248107860919 0.6566680503291284 0
0.5563380281690132 0.9878024591016277 0
0.9885131470932589 0.2748678487423381 0
0.4577464788732403 0.01219754089837233 0
0.9866163191404114 0.4416253594943634 0
0.01048223714132712 0.5420892422472192 0
0.2746764003413147 0.9878685769904674 0
0.3591549295774556 0.01219754089836622 0
0.9887737641897738 0.3589429561725474 0
0.5422535211267548 0.01219754089835989 0
0.7394468029388002 0.98784380707633 0
0.7394366197183062 0.01219754089837161 0
0.9894963683949933 0.7256127865659976 0
0.2605633802816893 0.01219754089836317 0
0.9866132362057489 0.5584313129818008 0
0.4436619718309854 0.9878024591016277 0
0.01338368085957953 0.4416253594943485 0
0.6549295774647867 0.01219754089837111 0
0.01259778011765922 0.739123913703981 0
0.01055314318852835 0.3595749587549361 0
0.9892226181133573 0.6406525843860327 0
0.3591834425948374 0.9878685769904721 0
0.9874315805796371 0.06422130539042392 0
0.9874430085521805 0.9358526824274368 0
0.06338028169014143 0.9878024591016276 0
0.01256841942037579 0.06422130539042137 0
0.9507042253521125 0.9878024591016277 0
0.01255180835718384 0.9509423592289157 0
0.950704225352112 0.01219754089837249 0
0.04929577464788765 0.01219754089836694 0
0.8098693381500679 0.9878438069781635 0
0.01265496749149253 0.5695590169858918 0
0.8802816901408447 0.9878024591016277 0
0.01190325269458903 0.8098591549295775 0
0.8239436619718273 0.01219754089837211 0
0.9872957163119197 0.204100014229386 0
0.4295774647887267 0.01219754089836711 0
0.0129098437357888 0.879532125476028 0
0.5704225352112648 0.01219754089836267 0
[...]
POINT_DATA 5988 
SCALARS sample_scalars float 1 
LOOKUP_TABLE my_table 
0.3894183423086506
0.965657776549278
-0.9568933495204898
0.965657776549278
0.44244369273527057
0.4974102738049478
0.5537555298643414
0.6108168441483225
0.6678254985601947
0.7239027153839966
0.7780584217267671
0.8291934326683196
0.8761057875882451
0.9175019886547121
0.952013872789678
0.9782217896681439
0.9946846492208163
0.9999772336078976
0.992734932469005
0.9717057498674632
0.9358090428841235
0.884199985318047
0.816338210655945
0.7320584881661861
0.6316406443062181
0.5158752872597044
0.3861212638146033
0.24435022353479938
0.09317324349907495
-0.06415575575100448
-0.2237650239105694
-0.3812232517627872
-0.5316351186452211
-0.6697768543301543
-0.7902727582449438
-0.8878113001714918
-0.9573966121235538
-0.9946279480663929
-0.9959961708841427
-0.9591827220528559
-0.8833431012303611
-0.7693539535494462
-0.6200008041580218
-0.44008269389650745
-0.23641085770368242
-0.017681509324479202
0.2057919743576637
0.42249450600937305
0.6202693677327333
0.7870077971511427
0.9114393828499553
0.9839804409585639
0.9975840684245765
0.9485242150306156
0.8370385219735547
0.6677525105948282
0.4498124959127822
0.1966675096578378
-0.07453788794400637
-0.34396801476075095
-0.5904686594501546
-0.7932370079517113
-0.9336751588135894
-0.9972741502683413
-0.9753449950053529
-0.8663972539482355
-0.6769692780960996
-0.42174125530269574
-0.12281436951883039
0.19188440782402674
0.4910166968520847
0.742904183583394
0.9189887453682172
0.9973212439655456
0.8237258910715454
0.5842632908985395
0.2725334343216903
-0.07581632028358803
-0.4184798460590489
-0.7114926732315707
-0.914971324380345
-0.9988685085768896
-0.947913409781625
-0.7649095463565789
-0.4716969776949735
-0.10735300767761087
0.2764144818589656
0.6222785943289396
0.8758559169070973
0.9945900399173037
0.9555060861320887
0.7603890381267571
0.4372023497517625
0.03708333575118922
-0.3730270216521249
-0.7212450653421066
-0.9434522284552669
-0.9956449719549808
-0.8635176580911647
-0.567120107568677
-0.1591592873904337
0.28335863228100755
0.6731021347851793
0.9296507838091012
0.9966641279760897
0.855279233251782
0.5304392610752986
0.08806610738559194
-0.37715770395632103
-0.7614834490862785
-0.9753803828764168
-0.9652360852949167
-0.7281160578639573
-0.3153508607992867
0.17694757345666354
0.6292301195378128
0.927327587043083
0.9919432415367093
0.8011363162381291
0.3991994764498516
-0.11163859879884372
-0.5958749013859808
-0.9202836905911548
-0.9912444308715496
-0.7833173900560287
-0.35005702335797295
0.1875705363518815
0.6735312466456974
0.9617254101651651
0.96087361146842
0.6653399486798716
0.1610866491674843
-0.3970802947944655
-0.8318461701408433
-0.9999468464055522
-0.8409732988857823
-0.40143646269283223
0.17595676855230855
0.696714647349962
0.9796488791753977
0.9211493613496156
0.5355772349396277
-0.04459371689683658
-0.6118327958157298
-0.6118327958157298
-0.04459371689685788
0.5355772349396156
0.9211493613496101
0.9796488791754062
0.6967146473499772
0.17595676855232253
-0.40143646269281275
-0.8409732988857708
-0.9999468464055524
-0.8318461701408512
-0.39708029479447854
0.16108664916747029
0.665339948679861
0.9608736114684161
0.9617254101651651
0.6735312466456974
0.1875705363518815
-0.3500570233579796
-0.7833173900560376
-0.9912444308715515
-0.9202836905911492
-0.5958749013859636
-0.11163859879881546
0.3991994764498777
0.8011363162381462
0.9919432415367139
0.9273275870430698
0.6292301195377852
0.17694757345662507
-0.3153508607993305
-0.7281160578639914
-0.9652360852949287
-0.9753803828764066
-0.7614834490862509
-0.37715770395627823
0.08806610738563794
0.5304392610753348
0.855279233251804
0.9966641279760935
0.929650783809088
0.673102134785153
0.2833586322809735
-0.15915928739046525
-0.5671201075686946
-0.8635176580911754
-0.9956449719549825
-0.9434522284552598
-0.7212450653420968
-0.37302702165211504
0.037083335751203414
0.4372023497517721
0.7603890381267594
0.9555060861320887
0.9945900399173037
0.8758559169071042
0.6222785943289479
0.27641448185897927
-0.10735300767759674
-0.4716969776949641
-0.7649095463565697
-0.9479134097816193
-0.9988685085768905
-0.9149713243803521
-0.7114926732315832
-0.418479846059065
-0.07581632028359157
0.2725334343216783
0.5842632908985295
0.8237258910715454
0.9973212439655456
0.9189887453682186
0.7429041835834012
0.4910166968520924
0.19188440782404592
-0.12281436951881453
-0.42174125530268125
-0.6769692780960892
-0.8663972539482284
-0.9753449950053497
-0.9972741502683422
-0.933675158813592
-0.7932370079517166
-0.5904686594501631
-0.34396801476075595
-0.07453788794400637
0.1966675096578378
0.4498124959127822
0.6677525105948282
0.8370385219735585
0.9485242150306183
0.9975840684245769
0.9839804409585626
0.9114393828499494
0.787007797151136
0.6202693677327243
0.42249450600936017
0.20579197435764632
-0.017681509324496962
-0.23641085770369968
-0.4400826938965258
-0.6200008041580378
-0.7693539535494581
-0.8833431012303702
-0.9591827220528613
-0.9959961708841446
-0.994627948066391
-0.9573966121235485
-0.887811300171484
-0.7902727582449335
-0.6697768543301441
-0.5316351186452097
-0.3812232517627749
-0.22376502391055988
-0.06415575575099561
0.09317324349908336
0.24435022353480626
0.38612126381460987
0.5158752872597071
0.6316406443062201
0.7320584881661879
0.8163382106559455
0.8841999853180474
0.9358090428841235
0.9717057498674632
0.9927349324690048
0.9999772336078976
0.9946846492208167
0.9782217896681445
0.9520138727896789
0.9175019886547137
0.8761057875882472
0.829193432668322
0.77805842172677
0.7239027153839999
0.6678254985601975
0.6108168441483244
0.5537555298643428
0.49741027380494895
0.4424436927352709
-0.9359445861950028
-0.21084325514359056
-0.3053138916085206
-0.9470372877617199
0.5055700293716459
0.12286071902756696
-0.5750701002496446
0.28653112523688185
0.31732195371775307
0.4760072411613252
0.06706195121192708
-0.5839049116128466
0.8998822951273758
-0.8279045558757314
0.46991448306815187
0.9148137349891619
-0.5946979248945775
-0.3689165616159279
-0.6076010272953746
0.3303577891744817
0.4471205502754163
0.9690857840782992
0.9197308004389909
0.9652085634548114
-0.4379789368959577
-0.4644564816245874
0.886580277251808
0.9603420624093754
-0.15542989087720363
-0.5893090598915788
0.9856537759622723
-0.5879424039000809
-0.9453962471179149
-0.6974500630319452
-0.9294287592625369
0.9626461270139312
-0.5875550529721565
-0.8530541103049727
0.8469209887868768
-0.8530541103049616
-0.007845640879773543
-0.03735473883564253
-0.013874439186058648
0.7971869863574433
0.563697867593214
0.7005612418626899
0.9599624036934397
-0.8391214965777922
0.5449329826233065
-0.9749858216110944
0.9816573767155913
-0.5806664069001855
0.5652782003749558
-0.12253507020061266
-0.9240224074899629
-0.5573754001092928
-0.5266210553573655
0.36040515730196254
-0.853508148347412
0.7873901097306553
-0.8215485087312352
0.9962373542372366
-0.9122631762101668
0.9444473756511537
0.3588505561236606
-0.10865294585894945
0.8786782854119923
-0.9316914163192819
0.04160178892427594
0.8919088038470416
0.05335541154763109
0.6933484882882519
0.9840195743079054
0.8253468166410889
0.8174872327234952
0.6317335951795331
0.8028893585262269
-0.16385590782524534
-0.9365225080351748
-0.849589337150575
-0.9664700465790094
0.4884083919766572
-0.8289114783928135
-0.5908209953915955
-0.15758386924364948
-0.982078472269034
-0.9212364341627597
0.9971771379463191
0.8753222257127378
0.13728662011620454
0.9979918065115684
0.9981805022800173
0.8919687402124339
0.18994878407756682
0.6908858672326513
0.685283389492054
-0.9235419180245928
0.6672437507497966
0.6855229182710445
-0.9915745743931773
-0.9822532777724717
-0.9991705365137131
0.9262906697955037
-0.5901639480672891
0.7107873288154627
0.6825768387774458
0.6780358222951959
0.5713772274354224
0.9994709536441405
0.16881544625229689
0.5170627612179408
0.9991411235762877
0.9595214958102558
0.986777722846121
0.8806187155805001
0.9991811478282211
0.931276574289752
0.9966196292255856
0.9684990430054731
0.9789657990027417
0.9915745905245553
0.9462966855211027
0.9999710572284994
0.898922758808004
0.9933698505965043
0.8373925362634308
0.9716759622675002
0.7624911371185447
0.9350265619908101
0.6752345067435612
0.883795837518994
0.5768596143715908
0.8185961242043874
0.46881054652596943
0.7402751415254424
0.3527205555405749
0.6499091968528411
0.23039018813905818
0.548792290504271
0.10376170309475016
0.43842112225264435
-0.02510993406362773
0.32047607416097906
-0.1540891126373806
0.19679832132126468
-0.2809942518566447
0.06936330082422244
-0.4036345745909361
-0.05974915162690258
-0.5198483983313098
-0.18838761008911534
-0.6275423030571241
-0.31436434916934963
-0.7247304856476591
-0.4354925838968031
-0.8095735712182937
-0.5496250607190494
-0.8804161246975868
-0.6546933448931663
-0.9358220924483294
-0.7487471022902483
-0.9746074049415036
-0.8299926374890855
-0.9958689883593869
-0.8968299264713951
-0.999009466189457
-0.947887372556932
-0.9837568817306731
-0.9820535195399509
-0.9501788389922396
-0.998504977173545
-0.8986905423697993
-0.9967298517808381
-0.8300563140068216
-0.9765460291194622
-0.9587383089045094
-0.9882260430188893
-0.9381137276131718
-0.9998305205968357
-0.8819418272426875
-0.9931266466911134
-0.8088875819201372
-0.9680230535581056
-0.7201494398200186
-0.9247730306182679
-0.9931128425278254
-0.9998397258906253
-0.8849240718709886
-0.9391729965915269
-0.6618354578902523
-0.7550272964727492
-0.3561697375942894
-0.47515889825809055
-0.009033998868528624
-0.1381179880394568
0.33549429782304924
0.21242435203516696
0.6360175533442105
0.5334752362372953
0.8586118145638909
0.7878962680961719
0.9802688683049832
0.9483835034469683
0.990723496146787
0.9999013130994734
0.8926338858812242
0.9404556687812512
0.7002841730564168
0.7803072508539062
0.4371287268389736
0.42190915039697663
-0.8639791143260682
0.5398955530633438
0.1325878961725489
0.24685798402358414
0.6355755809527297
-0.18146633319622824
0.35828020791145837
0.7227175022528545
0.46527504543951553
0.7999609021566133
0.566289546399992
0.8660593679989426
0.6598207872230746
0.9199027618503292
0.7444395158700889
0.9605382604233053
0.8188136254970598
0.9871897641594443
0.4929917175108269
0.881731077674497
0.9992752826327245
0.9321218837611328
0.9964219158701273
0.969078746788402
0.9784780711272235
0.9918759664488085
0.8539795405404436
0.9455225822192896
0.9999862169447733
0.3287937478808457
0.89787043371773
0.993094821899432
0.9433754819101785
0.9766015130039505
0.9156790378498489
0.7856506862128853
0.8540273700664679
0.995506508765874
-0.4668478826631293
0.5470189288991917
0.9103549764786908
0.9996188348898484
0.9536482374480648
0.9886828601871472
0.9830949488881183
0.9626695527802561
0.9980737834675779
0.9217838144584973
0.998169772650086
0.9232706566781128
0.9629257937269226
0.7501358688361307
0.9831870929623097
0.9885484899721455
0.9531588175803056
0.9995712987128246
0.1629361128950333
0.9083533280384953
0.995636837082804
0.8492771221381562
0.9766097911569641
0.7766738027147523
0.5179718151100864
0.9425858009759639
0.9929526376739276
0.9999936947288175
0.9003051502507327
0.9462248683638389
0.6915190874064666
0.7123930815850624
0.7909378238852992
0.7386465124131152
-0.4110715515295716
0.45226392996768777
0.5541051942263833
0.8584856553247948
-0.5651883018955425
0.623810874198565
0.14911111287134568
0.6486465666489745
0.9139083169390836
0.7344483486252199
0.9562323286632768
0.8101650897484776
0.9846586227854736
0.9986642801206421
-0.914206320549418
0.874568600602367
0.9985802020426323
0.9265700728408937
0.9975974400074656
0.9182864129104257
0.580214564727593
0.9652409093525458
0.8619582258131221
0.6411277446727246
-0.9919301514130121
0.539103543532501
0.21901023323993238
0.9227082961273739
0.09209106992456702
-0.25879098396176486
0.033661055814952275
-0.27688008120670443
-0.38440558971162375
-0.646781883090136
-0.7279942161094191
-0.8995619279275281
-0.9420924737265117
-0.9990310140751041
-0.9979500779324453
-0.9370977073815584
-0.8948690242590683
-0.7318432397162726
-0.6570685235659431
-0.9689221346637992
-0.42161732491390785
-0.32698597303189353
-0.056806343703457544
0.04328152734841866
-0.2294652861005854
0.14240970022001215
-0.13010574299298786
0.2396102790755829
-0.02995004295658137
0.3339601144573374
0.0699778055271485
0.4245887601413273
0.16868270552851328
0.5106855047374164
0.26520791974942204
0.5915054479966698
0.35864367782537254
0.6663746048667002
0.44813488896847714
0.7346940327419513
0.8840482862552216
0.9239761546140013
0.795942988980311
0.9556073392783195
0.8496811365089747
0.978805912880741
0.8955498251480805
0.9935149554085254
0.9908320028751206
0.9746082076229502
0.9997540748167512
0.9506048023565892
0.997616299764924
0.9191527146117302
0.9872644112068933
0.8806351437891624
0.9689267814420315
0.8354821745222337
0.9428927902005728
0.7841652215681801
0.9095078874455083
0.7271913698846304
0.8691683718911422
0.6650976705428939
0.8223159528328955
0.5984454496721281
0.7694321608259197
0.5278146837976195
0.7110326701155327
0.3193589515642635
0.4537984908053917
0.6476615925853954
0.3769977814025499
0.5798857994247134
0.29801611141828965
0.5082893227972892
0.6822063578895374
0.217454770664404
0.4334678855952924
-0.005957775575558301
0.13590813940900195
0.35602360294834673
0.8916252859103555
0.05395933886538777
0.27655989460033165
0.5610517716472279
0.48853238469981214
0.19567664262459797
0.4129489614885466
0.6776548302814505
0.6118515573849737
0.8319973277365066
0.7802569416541183
0.9407363630921849
0.9068383643060182
0.9950104587572265
0.9819166779909996
0.9887569020632887
0.9983117100729639
0.9194589733970833
0.9521309327301407
0.7887270588835005
0.8434204190308512
0.6026369441925635
0.6766006265534039
0.37175587641917557
0.46061399571930756
0.11080264823601803
0.20872387280298327
-0.1620876738251882
-0.06207453450339694
-0.42649126318036323
-0.33204081095838883
-0.6611732127087226
-0.5800463798643802
0.544625373831982
0.1139656242811051
0.9609288696878453
-0.8458306934267151
-0.7852330473517528
-0.49316247170449873
-0.7163492259421093
0.6469324015380937
-0.4015315670831213
-0.6400558281010253
-0.9629746076410411
0.9831231300546063
0.808716508411564
-0.30618912343087146
-0.557289247109061
0.9707155417302413
-0.20818369493446362
-0.4690330449252691
-0.7675532194416333
-0.6965953303196344
-0.9179495184691875
-0.8709114883121284
0.3090090492559252
-0.9932698805081582
-0.9751582676895405
-0.7355708057231802
0.2788353238430493
0.21380767086722233
-0.2315961580276372
-0.8144375860765382
-0.9460070689581116
-0.3823445400082536
-0.6829138091317719
-0.03687966308350765
0.5488929797088969
-0.788148091568251
-0.9838943851711106
-0.7734649792952166
-0.9487071205751967
-0.8979650236512434
-0.9988898863363646
-0.9961017561887905
-0.9131337982623768
-0.9602254814613695
-0.6991246928839346
-0.7910521666499938
-0.3833967506833689
-0.5083588630999066
-0.008802453906600838
-0.14949886346305555
0.3707659596182749
0.23490669899090383
0.6978829246520606
0.5877492643163369
0.920363277238231
0.8538788851433067
0.9999992196059285
0.9890211902703855
0.9197878748218007
0.9677296216452513
0.6882441853874988
0.788912992122411
0.3397255307183679
0.47771269663757976
-0.06972678178024692
0.08299741123983297
0.604343758093874
0.23326878771843998
-0.32955361428998153
-0.1810300272112161
0.37764457555523
-0.028764197712243027
-0.5675051981323666
-0.43384412298700464
0.12364854705753787
-0.29032725960719474
-0.7660731337493155
-0.6571797307249153
-0.9637267880488066
-0.9101062717732805
-0.5328492437283632
-0.8343659160893224
-0.999994940155742
-0.9880377511874304
-0.9057773984574762
-0.9615726759519808
-0.9516264252716212
-0.992905233660839
-0.7550657101815537
-0.8500806407130719
-0.9992313879681999
-0.9230714254527996
-0.5452634474831874
-0.6728155991885832
-0.9724014302118354
-0.78256873828027
-0.29175175915873547
-0.4424090493750746
0.14929971228480762
-0.013817111347606912
0.564432201233392
0.42106167552298235
0.8692078471524323
0.7751901320361079
0.9982376329583035
0.9742530639885855
0.9201200381565233
0.9729958321172518
0.6462283432005179
0.7666262843974334
-0.5810164076169702
0.2308091409008684
0.9979547247289714
0.8644107845715245
0.9945495414730291
0.9369691451391318
0.9631423171490435
0.9824547274216331
0.9048764974604097
0.9998235236603588
0.795166948918731
0.886417506812306
0.9888466387562715
0.9518700390829127
0.43622715364483544
0.9500991291474872
0.9898903843151009
0.8849263124404203
0.999652713052493
0.8405886352713181
0.795389266184398
0.4501775725617709
0.9811456020529372
0.9065676747921585
0.6841917619218605
0.9351547009339379
0.5545913198496983
0.8632232736543438
0.41029741183710305
0.7675924827194744
0.25536008120280307
-0.18753938013704904
0.6511237890108766
0.09405238484563576
0.5172062540825308
-0.06924990157584278
0.971467095799034
0.36965184726063216
-0.23018793746558813
0.2125820728545882
-0.3845356059578611
0.05030934236448689
-0.5283084491035297
0.6168006907222947
-0.11278347507408466
-0.657863068299361
-0.7418147826004977
-0.7492944797176638
-0.9063112019673983
-0.27236197867518713
-0.7699846747421698
0.46515677068934924
0.7696604110016894
0.6853461238341194
0.6928302151651274
0.9960148541106565
0.16339598089632687
-0.8352891543258013
-0.7718430527429019
0.747280580111981
-0.42425446982490206
-0.8619608866066313
-0.0031102623390012202
-0.9825392778542739
-0.5934081838424846
0.49954737998534526
0.9893099609746526
0.19344209964435932
-0.9675956697230691
-0.6763267682628916
-0.8566745240288365
-0.9895231298347563
-0.9684114887010589
-0.9886917063981909
-0.9991205647810532
0.6261166610595307
-0.48945943523781676
0.16943011890867818
-0.5645585811877445
-0.9316403137353766
0.6803094899683466
-0.900486845275303
-0.9427986149985766
0.999681221040564
-0.30109518563369464
-0.7977990755227824
0.8925252133148505
-0.6897377126500436
-0.9774749331054016
-0.9759619934803083
-0.9297861143899104
-0.9985457257134365
-0.8609335735085896
0.930840193834208
-0.9585353806746811
-0.8308301921155842
-0.7639108187345476
-0.5334823722859134
-0.43449973881798987
-0.7939860320675773
0.06474761321195453
0.1635409843004027
0.4199314440736361
0.5062855253372237
0.7135436593451063
0.7771105959019022
0.9120736385044463
0.9463826219636795
0.997104546222043
-0.9945715049515319
-0.7713146396824281
0.9927417827746858
0.9995867697318849
0.8460813308781406
0.6066802780643105
-0.6939037606076888
-0.2867079361633962
-0.7294666005285128
-0.8010423274206622
-0.9735844211304686
-0.8624019669531038
-0.13699158540682455
-0.022208493538599987
0.9940927295076387
-0.9731023944889872
0.44471097488633404
0.14085305253197233
0.025356590413604583
-0.28475378638121057
-0.39193095616578844
-0.6529090434484118
-0.7334713359027953
-0.5637268164129191
0.990406535436486
-0.9926422527358079
-0.9129374985904288
0.9998808882486893
0.9656541855575753
0.972293856782173
0.9851161256654837
0.8745488352721454
0.9140466809344492
0.7345663579910522
0.7908654255833933
0.555960062761371
0.6251001201567289
0.3503784818982551
0.42798784438631166
0.13003102429406246
0.21162580050692573
-0.0930722668215983
-0.011821215442473337
-0.30776881764431363
-0.230813477662423
-0.5042555189056023
-0.4350000642100605
-0.6744538067162744
-0.6156381978626514
-0.8122284854227767
-0.7658648905701819
-0.9134702094058902
-0.8808276937445396
-0.9760583778949629
-0.9576890909132199
-0.9997256194871259
-0.9955243621887134
-0.9858472377810418
-0.9951357296325015
-0.9371792653283468
-0.9588065294088254
-0.8575675093887912
-0.8900184098988795
-0.7516475746626182
-0.7931525249406479
-0.6245527096481791
-0.6731927798861461
-0.4816428019727395
-0.5354457686481557
-0.3282642473457767
-0.38528843694090137
-0.587587536292939
-0.4413538601748541
-0.22795098456977422
-0.2860548068451655
-0.49620735756684076
-0.34362374936773565
-0.12673297553049898
-0.18521275207360854
-0.4004155499577237
-0.24355888222987604
-0.02576842219736038
-0.08396530126851949
-0.301542730914644
0.13040587492031122
-0.1424030836037057
-0.3589274921555634
-0.2008689811426007
-0.41546902648857875
-0.2591408146987481
-0.4709167973770661
-0.3169876832394979
-0.5250149072810603