# vtk DataFile Version 2.0
untitled, Created by Gmsh 4.10.0 
ASCII
DATASET UNSTRUCTURED_GRID
POINTS 5962 double
0 0 0
1 0 0
1 1 0
0 1 0
0.01408450704225353 0 0
0.02816901408450706 0 0
0.0422535211267606 0 0
0.05633802816901413 0 0
0.07042253521126766 0 0
0.08450704225352119 0 0
0.09859154929577472 0 0
0.1126760563380283 0 0
0.1267605633802818 0 0
0.1408450704225354 0 0
0.1549295774647889 0 0
0.1690140845070424 0 0
0.183098591549296 0 0
0.1971830985915496 0 0
0.2112676056338031 0 0
0.2253521126760567 0 0
0.2394366197183102 0 0
0.2535211267605638 0 0
0.2676056338028173 0 0
0.2816901408450709 0 0
0.2957746478873244 0 0
0.309859154929578 0 0
0.3239436619718316 0 0
0.3380281690140851 0 0
0.3521126760563387 0 0
0.3661971830985922 0 0
0.3802816901408458 0 0
0.3943661971830993 0 0
0.4084507042253529 0 0
0.4225352112676064 0 0
0.43661971830986 0 0
0.4507042253521135 0 0
0.464788732394367 0 0
0.4788732394366205 0 0
0.492957746478874 0 0
0.5070422535211274 0 0
0.5211267605633808 0 0
0.5352112676056343 0 0
0.5492957746478878 0 0
0.5633802816901413 0 0
0.5774647887323947 0 0
0.5915492957746482 0 0
0.6056338028169017 0 0
0.6197183098591551 0 0
0.6338028169014085 0 0
0.647887323943662 0 0
0.6619718309859156 0 0
0.676056338028169 0 0
0.6901408450704224 0 0
0.7042253521126759 0 0
0.7183098591549294 0 0
0.7323943661971828 0 0
0.7464788732394363 0 0
0.7605633802816898 0 0
0.7746478873239433 0 0
0.7887323943661967 0 0
0.8028169014084501 0 0
0.8169014084507036 0 0
0.8309859154929571 0 0
0.8450704225352106 0 0
0.859154929577464 0 0
0.8732394366197175 0 0
0.887323943661971 0 0
0.9014084507042245 0 0
0.915492957746478 0 0
0.9295774647887316 0 0
0.9436619718309854 0 0
0.957746478873239 0 0
0.9718309859154927 0 0
0.9859154929577464 0 0
1 0.01408450704225353 0
1 0.02816901408450706 0
1 0.0422535211267606 0
1 0.05633802816901413 0
1 0.07042253521126766 0
1 0.08450704225352119 0
1 0.09859154929577472 0
1 0.1126760563380283 0
1 0.1267605633802818 0
1 0.1408450704225354 0
1 0.1549295774647889 0
1 0.1690140845070424 0
1 0.183098591549296 0
1 0.1971830985915496 0
1 0.2112676056338031 0
1 0.2253521126760567 0
1 0.2394366197183102 0
1 0.2535211267605638 0
1 0.2676056338028173 0
1 0.2816901408450709 0
1 0.2957746478873244 0
1 0.309859154929578 0
1 0.3239436619718316 0
1 0.3380281690140851 0
1 0.3521126760563387 0
1 0.3661971830985922 0
1 0.3802816901408458 0
1 0.3943661971830993 0
1 0.4084507042253529 0
1 0.4225352112676064 0
1 0.43661971830986 0
1 0.4507042253521135 0
1 0.464788732394367 0
1 0.4788732394366205 0
1 0.492957746478874 0
1 0.5070422535211274 0
1 0.5211267605633808 0
1 0.5352112676056343 0
1 0.5492957746478878 0
1 0.5633802816901413 0
1 0.5774647887323947 0
1 0.5915492957746482 0
1 0.6056338028169017 0
1 0.6197183098591551 0
1 0.6338028169014085 0
1 0.647887323943662 0
1 0.6619718309859156 0
1 0.676056338028169 0
1 0.6901408450704224 0
1 0.7042253521126759 0
1 0.7183098591549294 0
1 0.7323943661971828 0
1 0.7464788732394363 0
1 0.7605633802816898 0
1 0.7746478873239433 0
1 0.7887323943661967 0
1 0.8028169014084501 0
1 0.8169014084507036 0
1 0.8309859154929571 0
1 0.8450704225352106 0
1 0.859154929577464 0
1 0.8732394366197175 0
1 0.887323943661971 0
1 0.9014084507042245 0
1 0.915492957746478 0
1 0.9295774647887316 0
1 0.9436619718309854 0
1 0.957746478873239 0
1 0.9718309859154927 0
1 0.9859154929577464 0
0.9859154929577465 1 0
0.9718309859154929 1 0
0.9577464788732394 1 0
0.9436619718309859 1 0
0.9295774647887324 1 0
0.9154929577464788 1 0
0.9014084507042253 1 0
0.8873239436619718 1 0
0.8732394366197183 1 0
0.8591549295774646 1 0
0.8450704225352111 1 0
0.8309859154929575 1 0
0.816901408450704 1 0
0.8028169014084504 1 0
0.7887323943661969 1 0
0.7746478873239433 1 0
0.7605633802816898 1 0
0.7464788732394363 1 0
0.7323943661971827 1 0
0.7183098591549291 1 0
0.7042253521126756 1 0
0.6901408450704221 1 0
0.6760563380281684 1 0
0.6619718309859148 1 0
0.6478873239436613 1 0
0.6338028169014078 1 0
0.6197183098591542 1 0
0.6056338028169006 1 0
0.5915492957746471 1 0
0.5774647887323936 1 0
0.5633802816901401 1 0
0.5492957746478865 1 0
0.5352112676056331 1 0
0.5211267605633796 1 0
0.5070422535211261 1 0
0.4929577464788726 1 0
0.4788732394366192 1 0
0.4647887323943657 1 0
0.4507042253521122 1 0
0.4366197183098587 1 0
0.4225352112676053 1 0
0.4084507042253518 1 0
0.3943661971830983 1 0
0.3802816901408449 1 0
0.3661971830985915 1 0
0.352112676056338 1 0
0.3380281690140844 1 0
0.323943661971831 1 0
0.3098591549295776 1 0
0.2957746478873241 1 0
0.2816901408450706 1 0
0.2676056338028172 1 0
0.2535211267605637 1 0
0.2394366197183102 1 0
0.2253521126760567 1 0
0.2112676056338033 1 0
0.1971830985915499 1 0
0.1830985915492964 1 0
0.1690140845070429 1 0
0.1549295774647894 1 0
0.140845070422536 1 0
0.1267605633802825 1 0
0.112676056338029 1 0
0.09859154929577552 1 0
0.08450704225352201 1 0
0.0704225352112684 1 0
0.05633802816901456 1 0
0.04225352112676095 1 0
0.02816901408450734 1 0
0.01408450704225361 1 0
0 0.9859154929577465 0
0 0.9718309859154929 0
0 0.9577464788732394 0
0 0.9436619718309859 0
0 0.9295774647887324 0
0 0.9154929577464788 0
0 0.9014084507042253 0
0 0.8873239436619718 0
0 0.8732394366197183 0
0 0.8591549295774646 0
0 0.8450704225352111 0
0 0.8309859154929575 0
0 0.816901408450704 0
0 0.8028169014084504 0
0 0.7887323943661969 0
0 0.7746478873239433 0
0 0.7605633802816898 0
0 0.7464788732394363 0
0 0.7323943661971827 0
0 0.7183098591549291 0
0 0.7042253521126756 0
0 0.6901408450704221 0
0 0.6760563380281684 0
0 0.6619718309859148 0
0 0.6478873239436613 0
0 0.6338028169014078 0
0 0.6197183098591542 0
0 0.6056338028169006 0
0 0.5915492957746471 0
0 0.5774647887323936 0
0 0.5633802816901401 0
0 0.5492957746478865 0
0 0.5352112676056331 0
0 0.5211267605633796 0
0 0.5070422535211261 0
0 0.4929577464788726 0
0 0.4788732394366192 0
0 0.4647887323943657 0
0 0.4507042253521122 0
0 0.4366197183098587 0
0 0.4225352112676053 0
0 0.4084507042253518 0
0 0.3943661971830983 0
0 0.3802816901408449 0
0 0.3661971830985915 0
0 0.352112676056338 0
0 0.3380281690140844 0
0 0.323943661971831 0
0 0.3098591549295776 0
0 0.2957746478873241 0
0 0.2816901408450706 0
0 0.2676056338028172 0
0 0.2535211267605637 0
0 0.2394366197183102 0
0 0.2253521126760567 0
0 0.2112676056338033 0
0 0.1971830985915499 0
0 0.1830985915492964 0
0 0.1690140845070429 0
0 0.1549295774647894 0
0 0.140845070422536 0
0 0.1267605633802825 0
0 0.112676056338029 0
0 0.09859154929577552 0
0 0.08450704225352201 0
0 0.0704225352112684 0
0 0.05633802816901456 0
0 0.04225352112676095 0
0 0.02816901408450734 0
0 0.01408450704225361 0
0.5066484689730972 0.01219737912962282 0
0.4932567871131547 0.9878492589720742 0
0.9871805159497253 0.4961722096775358 0
0.01372625435150737 0.5042505900239658 0
0.9874647578032982 0.594035005987095 0
0.3953877774371105 0.988449605733119 0
0.01292961144406496 0.4062525733233044 0
0.6053481220003584 0.01219754088386943 0
0.01303568419561452 0.6021449680702655 0
0.5917933515252478 0.987849552888553 0
0.9865090963540026 0.3978241242429631 0
0.4072084251950286 0.01224241454383712 0
0.01316132510932078 0.7001355732378 0
0.6904309626674685 0.9878550687732075 0
0.3085775550320005 0.01219755162435632 0
0.7040017078363634 0.01219754089837133 0
0.9875358203666735 0.3127878151690383 0
0.9876976461467911 0.6792975068785955 0
0.3228094380513472 0.9878655633603171 0
0.01151709682033353 0.3214358758723677 0
0.9861370986092715 0.7644156446199505 0
0.238305235981943 0.9878548062392563 0
0.01222163328176634 0.235037221628051 0
0.9863993675224882 0.2356828780683317 0
0.7884406124543916 0.01219754089916775 0
0.01612653777740869 0.7848200446463283 0
0.7750542708462209 0.987853016670188 0
0.2238800382958292 0.01219754134370321 0
0.9871430167122637 0.8352603151864029 0
0.1678832735269643 0.9878455149501343 0
0.01383194865134829 0.1637494721999571 0
0.9873639303026649 0.1647520135692589 0
0.8587892349903244 0.01219760055853786 0
0.8454318997279204 0.9878502010224248 0
0.01272913823055594 0.8570208340201209 0
0.1535436605670394 0.0121975450664718 0
0.9862808442635799 0.8897617656050322 0
0.1116186989355453 0.98784697796818 0
0.01225598915864723 0.1068410433935692 0
0.9841967235232101 0.1097015554922597 0
0.9150799946585594 0.01216085134780653 0
0.902268294830314 0.9876913338866715 0
0.01740351602859991 0.9087660458575275 0
0.09693008772541023 0.01219950836547129 0
0.648191138443744 0.987854468051838 0
0.01210308571463325 0.2751780185891711 0
0.01707317070656272 0.6559151178213738 0
0.5495515559812887 0.9878495889821337 0
0.4644141582564484 0.01224108949595748 0
0.9861876530947953 0.4380506146543018 0
0.01181066707789891 0.5483073983050626 0
0.2805477576125364 0.9878585499533887 0
0.3648150392066367 0.01219751659409568 0
0.9880830343636072 0.3532806515943913 0
0.5490199025593506 0.01219753481662056 0
0.7327206620398024 0.9878512368403292 0
0.7462392771664044 0.01219754089837205 0
0.9883708237449699 0.7195419086178876 0
0.266141020610096 0.01219754722559308 0
0.9838808153597746 0.552634204220697 0
0.4367649271082319 0.9878499008380424 0
0.01546510325220463 0.4477969450305895 0
0.6617471932240654 0.01219754089835795 0
0.01270949389271764 0.7407766925126973 0
0.01205266543392258 0.3651875665584746 0
0.9877047601349682 0.6354851389647778 0
0.3643015185752377 0.9884664862322483 0
0.9870402224096668 0.06654198442106884 0
0.9873282491306039 0.933757312775809 0
0.06931975845685845 0.9878542454005552 0
0.01290479217722135 0.06655148806706834 0
0.9450998809079905 0.9877673303523902 0
0.01349354208157927 0.9469745449602296 0
0.9521360251076988 0.0112217144998849 0
0.0548910252422562 0.01226455450188391 0
0.8031986184238051 0.9878536511184519 0
0.01268700723711041 0.5753545284363262 0
0.8735837541797805 0.9877962133311115 0
0.01248798440207116 0.8156796024411271 0
0.8305970151272331 0.01219754211124624 0
0.9859080214214371 0.2053027834618771 0
0.4359059542376255 0.01234291845530355 0
0.01334451050345081 0.8807396395984073 0
0.5772223779495028 0.01219754063609629 0
0.9879065324422861 0.1382711316164564 0
[...]
POINT_DATA 5962 
SCALARS sample_scalars float 1 
LOOKUP_TABLE my_table 
0.3894183423086506
0.965657776549278
-0.9568933495204898
0.965657776549278
0.44244369273527057
0.4974102738049478
0.5537555298643414
0.6108168441483225
0.6678254985601947
0.7239027153839966
0.7780584217267671
0.8291934326683196
0.8761057875882451
0.9175019886547121
0.952013872789678
0.9782217896681439
0.9946846492208163
0.9999772336078976
0.992734932469005
0.9717057498674632
0.9358090428841235
0.884199985318047
0.816338210655945
0.7320584881661861
0.6316406443062181
0.5158752872597044
0.3861212638146033
0.24435022353479938
0.09317324349907495
-0.06415575575100448
-0.2237650239105694
-0.3812232517627872
-0.5316351186452211
-0.6697768543301543
-0.7902727582449438
-0.8878113001714918
-0.9573966121235538
-0.9946279480663929
-0.9959961708841427
-0.9591827220528559
-0.8833431012303611
-0.7693539535494462
-0.6200008041580218
-0.44008269389650745
-0.23641085770368242
-0.017681509324479202
0.2057919743576637
0.42249450600937305
0.6202693677327333
0.7870077971511427
0.9114393828499553
0.9839804409585639
0.9975840684245765
0.9485242150306156
0.8370385219735547
0.6677525105948282
0.4498124959127822
0.1966675096578378
-0.07453788794400637
-0.34396801476075095
-0.5904686594501546
-0.7932370079517113
-0.9336751588135894
-0.9972741502683413
-0.9753449950053529
-0.8663972539482355
-0.6769692780960996
-0.42174125530269574
-0.12281436951883039
0.19188440782402674
0.4910166968520847
0.742904183583394
0.9189887453682172
0.9973212439655456
0.8237258910715454
0.5842632908985395
0.2725334343216903
-0.07581632028358803
-0.4184798460590489
-0.7114926732315707
-0.914971324380345
-0.9988685085768896
-0.947913409781625
-0.7649095463565789
-0.4716969776949735
-0.10735300767761087
0.2764144818589656
0.6222785943289396
0.8758559169070973
0.9945900399173037
0.9555060861320887
0.7603890381267571
0.4372023497517625
0.03708333575118922
-0.3730270216521249
-0.7212450653421066
-0.9434522284552669
-0.9956449719549808
-0.8635176580911647
-0.567120107568677
-0.1591592873904337
0.28335863228100755
0.6731021347851793
0.9296507838091012
0.9966641279760897
0.855279233251782
0.5304392610752986
0.08806610738559194
-0.37715770395632103
-0.7614834490862785
-0.9753803828764168
-0.9652360852949167
-0.7281160578639573
-0.3153508607992867
0.17694757345666354
0.6292301195378128
0.927327587043083
0.9919432415367093
0.8011363162381291
0.3991994764498516
-0.11163859879884372
-0.5958749013859808
-0.9202836905911548
-0.9912444308715496
-0.7833173900560287
-0.35005702335797295
0.1875705363518815
0.6735312466456974
0.9617254101651651
0.96087361146842
0.6653399486798716
0.1610866491674843
-0.3970802947944655
-0.8318461701408433
-0.9999468464055522
-0.8409732988857823
-0.40143646269283223
0.17595676855230855
0.696714647349962
0.9796488791753977
0.9211493613496156
0.5355772349396277
-0.04459371689683658
-0.6118327958157298
-0.6118327958157298
-0.04459371689685788
0.5355772349396156
0.9211493613496101
0.9796488791754062
0.6967146473499772
0.17595676855232253
-0.40143646269281275
-0.8409732988857708
-0.9999468464055524
-0.8318461701408512
-0.39708029479447854
0.16108664916747029
0.665339948679861
0.9608736114684161
0.9617254101651651
0.6735312466456974
0.1875705363518815
-0.3500570233579796
-0.7833173900560376
-0.9912444308715515
-0.9202836905911492
-0.5958749013859636
-0.11163859879881546
0.3991994764498777
0.8011363162381462
0.9919432415367139
0.9273275870430698
0.6292301195377852
0.17694757345662507
-0.3153508607993305
-0.7281160578639914
-0.9652360852949287
-0.9753803828764066
-0.7614834490862509
-0.37715770395627823
0.08806610738563794
0.5304392610753348
0.855279233251804
0.9966641279760935
0.929650783809088
0.673102134785153
0.2833586322809735
-0.15915928739046525
-0.5671201075686946
-0.8635176580911754
-0.9956449719549825
-0.9434522284552598
-0.7212450653420968
-0.37302702165211504
0.037083335751203414
0.4372023497517721
0.7603890381267594
0.9555060861320887
0.9945900399173037
0.8758559169071042
0.6222785943289479
0.27641448185897927
-0.10735300767759674
-0.4716969776949641
-0.7649095463565697
-0.9479134097816193
-0.9988685085768905
-0.9149713243803521
-0.7114926732315832
-0.418479846059065
-0.07581632028359157
0.2725334343216783
0.5842632908985295
0.8237258910715454
0.9973212439655456
0.9189887453682186
0.7429041835834012
0.4910166968520924
0.19188440782404592
-0.12281436951881453
-0.42174125530268125
-0.6769692780960892
-0.8663972539482284
-0.9753449950053497
-0.9972741502683422
-0.933675158813592
-0.7932370079517166
-0.5904686594501631
-0.34396801476075595
-0.07453788794400637
0.1966675096578378
0.4498124959127822
0.6677525105948282
0.8370385219735585
0.9485242150306183
0.9975840684245769
0.9839804409585626
0.9114393828499494
0.787007797151136
0.6202693677327243
0.42249450600936017
0.20579197435764632
-0.017681509324496962
-0.23641085770369968
-0.4400826938965258
-0.6200008041580378
-0.7693539535494581
-0.8833431012303702
-0.9591827220528613
-0.9959961708841446
-0.994627948066391
-0.9573966121235485
-0.887811300171484
-0.7902727582449335
-0.6697768543301441
-0.5316351186452097
-0.3812232517627749
-0.22376502391055988
-0.06415575575099561
0.09317324349908336
0.24435022353480626
0.38612126381460987
0.5158752872597071
0.6316406443062201
0.7320584881661879
0.8163382106559455
0.8841999853180474
0.9358090428841235
0.9717057498674632
0.9927349324690048
0.9999772336078976
0.9946846492208167
0.9782217896681445
0.9520138727896789
0.9175019886547137
0.8761057875882472
0.829193432668322
0.77805842172677
0.7239027153839999
0.6678254985601975
0.6108168441483244
0.5537555298643428
0.49741027380494895
0.4424436927352709
-0.8982590273146956
0.013158120744394484
-0.06238956061541978
-0.9036760620925623
0.3159782452634973
-0.047314993553736154
-0.6382886753580388
0.3899928260367058
0.3541543467322026
0.25259581819471294
-0.031618419190960166
-0.6408467513542627
0.8836796330549028
-0.66093572097646
0.4164394844163507
0.8575909218121947
-0.4956312995934086
-0.29474611974643405
-0.7380940107761053
0.29667016247638894
0.3404996005736525
0.9967190606525801
0.9091288823655589
0.9806242762413835
-0.554689026025903
-0.5598151061826558
0.7385643163329317
0.9457697396392617
-0.06041106660347553
-0.4524854284020407
0.989488699484267
-0.5374249792224183
-0.8894967287481165
-0.4808786094050822
-0.9012824199182855
0.9729480497201619
-0.7724995395588775
-0.9238986431297743
0.8511798899849862
-0.8592308414336043
0.13988832980593044
-0.2983702346394314
0.11594683071218945
0.816666548433767
0.7492205836751825
0.6940963806202796
0.9730020635227968
-0.9425887472066476
-0.9910666961945954
0.9485923443394912
-0.4841492237772005
0.415941380111646
-0.18673952939907973
-0.980838760457278
-0.4694479410933586
-0.7264538862306202
0.23650441568898203
-0.9629678689192751
0.7535954677493456
-0.9524208011188884
0.9523932931829068
-0.9513452569416124
0.9767223229662072
0.32727553739933357
-0.18932061317723145
0.9680427771949575
-0.8530781615901503
-0.006720174294834138
0.8456289903298216
-0.09674991377714241
0.703960240806123
0.9980867814379566
0.7836321474879062
0.8235502684416148
0.6546511450999889
0.9312444162789733
-0.07302562699067504
-0.9966910535779125
-0.9113319010006784
-0.9926437709413447
0.4839116830382497
-0.8726844694477587
-0.5614767576719683
-0.05132466840466721
-0.9527255824206566
-0.8079810666916932
0.9951806335669154
0.927554463927859
0.30080255996608035
0.9998089212534628
0.953566228782909
0.9081529671105403
0.1274951353959854
0.7692256003844276
0.7163200497821488
-0.8276144296012762
0.8151271848396522
0.7636391748865686
-0.9135707311070992
-0.940998564024665
-0.9989584386486872
0.9289477673840042
-0.4662881982218734
0.6146563573577695
0.8470408431693733
0.5702684559758198
0.5960070169720615
0.9985558493655247
0.4376403753331184
0.543370369148035
0.9970698100767564
0.9507215244759325
0.9749040437889777
0.8695249842118709
0.9814232317955228
0.8620889746226204
0.993671043718377
0.9710391142366466
0.91637163970689
0.9986634375321752
0.9394914821625877
0.999999995524762
0.9588875612449681
0.9985801771923146
0.8503847065421257
0.9773152383341327
0.6912132793117067
0.8933576241343106
0.7582101375085744
0.9322756823867662
0.5786077786471782
0.8187911626046752
0.35118263597091903
0.6476703220509561
0.4187219832380746
0.7039439348334408
0.1522455697724922
0.484780206599709
0.24743036977845356
0.567625421742656
0.03433727028490092
0.3837246201628088
-0.14320772752111066
0.21681583263447554
-0.300867779356418
0.05382713335298281
-0.4659812160054804
-0.1307490682043945
-0.6511806985476045
-0.3482858466853651
-0.5816575307176469
-0.25846896946162795
-0.7955571100643929
-0.5277519151031128
-0.7675817707248211
-0.4906000290253299
-0.9433680299258713
-0.764374685729392
-0.9529392999421599
-0.7826476635608226
-0.9650718583121489
-0.8062612153880174
-0.9729032503388343
-0.8265471201468527
-0.9878239118238316
-0.9779118933495023
-0.98749822248108
-0.9777380381483853
-0.9938696332491013
-0.9651930543891583
-0.9280024492059055
-0.9999825355709245
-0.7980383227525976
-0.9633425535701347
-0.9374163364125223
-0.9954619067762404
-0.833955636861258
-0.97747730104841
-0.8291777157786976
-0.9763089934572162
-0.7868466550811327
-0.9598693873522177
-0.7165854236422423
-0.9245046593297169
-0.9956865010172935
-0.9998645516342968
-0.8948682584756421
-0.9383001287748678
-0.6781798297958658
-0.7534556975902408
-0.377326259005141
-0.4734781358287174
-0.03128362064795361
-0.1362560933118021
0.3145752750552063
0.21379719534122205
0.6176301251689067
0.5342381164681875
0.845519631351593
0.7888698892726742
0.9754245535491513
0.9493009461047894
0.9932841582611232
0.9998613835168688
0.9014059947894978
0.9400514032034067
0.7153148918490388
0.7799297979876493
0.45703866858002723
0.44435836978852133
-0.8764245572636009
0.5397644911663312
0.15327020532956961
0.24786073997719982
0.6209152164595587
-0.1599752088071603
0.3405901423707037
0.6763286018721906
0.40398360883699314
0.6969179060795881
0.4193952863009406
0.8882479765549519
0.6827591601963802
0.8732766137951442
0.660874107554451
0.9788756424856215
0.8549524335533176
0.9693958258329783
0.3795976627477886
0.8341459551687449
0.9989709405831178
0.9574440478901745
0.9999993770470692
0.9433029880860454
0.9573534001883702
0.9988526485017176
0.8057908116114357
0.9697914390618017
0.9956300678315871
0.4037099248477508
0.8561877987302827
0.9798471708611083
0.9098933507628205
0.9907005094497502
0.8776606188738835
0.7263475637846415
0.8908757643590142
0.9831296138201567
-0.5116923761052615
0.4674422140621678
0.8673126966268168
0.9956399412363601
0.9696683195518331
0.9999928943112665
0.9444218305573907
0.9754262138309708
0.9932662213270055
0.9080887661294649
0.9955595926997629
0.9028069798247137
0.9715603972151351
0.7179134943086554
0.9510431461405526
0.9997212960466272
0.9797373662488856
0.9909846543057924
-0.004154591918962754
0.9070585797906118
0.9951218934649386
0.7756194641078259
0.9411330798327294
0.8190208376401392
0.5779471480243938
0.963419918439561
0.9999383685580387
0.9978752226508811
0.9490648786292204
0.9218060832977213
0.6217711112352073
0.7962655860134716
0.7477098317735765
0.7120350278809716
-0.4044227241158594
0.5608579564737731
0.49914922748576807
0.8999464368935786
-0.5078336390151558
0.6753180415002946
0.27082249232092137
0.7129808201591613
0.8799873691409892
0.6822154285669213
0.9796373560750797
0.861062178078614
0.9729813286757008
0.9912301444615064
-0.8647887660009184
0.8464836572488598
0.9950235337232587
0.9729113174028723
0.9908042653411578
0.8877689038968023
0.6560661396912504
0.9799786581629542
0.8577920763734951
0.6350742920000586
-0.9993953169372856
0.5963181063786127
0.29026869877101275
0.8660033687113001
0.28797612699065656
-0.05647208267032329
0.04147904963064894
-0.2734367757586548
-0.47802255353155715
-0.722349388696201
-0.6490722219118815
-0.8461995566792775
-0.9301319053112415
-0.9969473967319754
-0.9949694972413123
-0.92280833289011
-0.83329447926408
-0.6410645853908306
-0.6961144985208815
-0.9758150881196749
-0.4637112780928493
-0.2504947468868283
0.03321212449006671
-0.014243342216552428
-0.29602636808390004
0.22956764618894906
-0.05988737411366153
0.17308615678375824
-0.10223647502022035
0.39036128681073806
0.1335724619065054
0.35813653299604253
0.10054486624528622
0.5624803866739458
0.3295375051200355
0.5437331678981336
0.3072907413930383
0.735439037032414
0.5368034353309732
0.7370360936275936
0.8852073857694528
0.8884923986831934
0.7418685819780079
0.9797176962155587
0.8983765897201196
0.9872289757178292
0.9160603704690257
0.9952316107859424
0.9884748244910855
0.9767372766197998
0.9994225928181373
0.9672365581650193
0.9999815195859548
0.9687714571343738
0.9999991143506419
0.9047080823015283
0.9813184064270013
0.8188960475608392
0.9319151537617917
0.6964958309818042
0.844978871416463
0.710680649970543
0.8580396240991737
0.7148184339804367
0.8611896670275854
0.5225153475874383
0.7072773556620516
0.5022072045790167
0.6895226409979414
0.28899946906562596
0.4793335794665076
0.6703794721681942
0.468891084982593
0.6611152466135677
0.26372987582403
0.4757655579456074
0.6553234005392637
0.2842389661608972
0.49512759036883025
0.06534781620941195
0.09862465986169575
0.3192823025194629
0.8963994802875724
0.15536140907628535
0.3765884054519036
0.5314204072231273
0.580999854099525
0.2446531279684526
0.4600529254778414
0.7560323128397761
0.6536851540478663
0.8900300002226638
0.8136301466342353
0.97371613634235
0.9290864009932777
0.999847720010539
0.9910921114110232
0.9640903188344337
0.9933145878170858
0.8656311624456399
0.9326992000261309
0.7080214339962345
0.8101140967434434
0.4993146114102929
0.630950359229273
0.2519959702091447
0.4052814005374469
-0.017488042394476887
0.14720039124398196
-0.289723585894397
-0.12557885815820985
-0.5437346623653839
-0.39293370759716517
-0.7581205639021805
-0.6333506975618085
0.5264137170567423
0.13100676443268588
0.9661053610335438
-0.9127504483621186
-0.8259972120267158
-0.5155609154134692
-0.734070475778167
0.5845358635909405
-0.39677082218196835
-0.6349880419411774
-0.9917275241826196
0.947638713281008
0.8283533769569071
-0.2581720824632499
-0.512686838691918
0.9796019437440597
-0.08453979505296935
-0.3517438515837924
-0.7300045700131239
-0.5964749273174966
-0.8929783366229914
-0.7976654174839806
0.2741991354911751
-0.9844364454346078
-0.9361906436381534
-0.7064954513084913
0.32178142603912624
0.3106277705438161
-0.31393168802398086
-0.843373264206124
-0.9619763425897455
-0.3669488227677939
-0.6758091527299211
-0.020078330875368568
0.5357772258268797
-0.8661155532417626
-0.9931015404145827
-0.8739636786424717
-0.9912516938822468
-0.898949918368569
-0.9702583869669404
-0.9968867911285301
-0.8122909788112719
-0.9566801175330035
-0.5382751459406085
-0.7827793053459254
-0.1842168183902329
-0.49620713262170696
0.2004255899899193
-0.1352754390625007
0.5583522973904267
0.24849752155549185
0.8349610012283575
0.6001452925625032
0.9834671669072813
0.8626690697051123
0.9754931779776268
0.9913792419636797
0.8086100380964129
0.9633300327592209
0.5068629611922911
0.7782930327290215
0.11976420634582917
0.46340802262998954
-0.2871096330126243
0.07173627586664977
0.7617877736906618
0.44330794505205473
-0.32942745910751925
0.04835092733311858
0.460834406923413
0.06129667332456844
-0.3550857377040145
-0.3540072829106691
0.10058192153567806
-0.32549313885328424
-0.7122730391667239
-0.6878530289231951
-0.9390307091906303
-0.9277424954625754
-0.6655545511355277
-0.9169851754172929
-0.9984086079538523
-0.9997527184648487
-0.8814327235180477
-0.8992510189043501
-0.9077481919950715
-0.9999779447938231
-0.6338036430887586
-0.912347733898249
-0.9995892479278888
-0.9194211571871023
-0.6538580658890498
-0.663364293975063
-0.9185401899004519
-0.6584167437597076
-0.27240747733435966
-0.2671781163708722
0.17362342622446844
0.17838858821699108
0.5867427094713061
0.5886657257461383
0.8817396136085027
0.8795721015799639
0.9988505551728633
0.997337346925004
0.9363437495886235
0.9714706600121493
0.8004193540757983
0.6821379973193381
-0.6364605212311749
0.3147230521905667
0.9927020682417296
0.9282025129941326
0.998142919057929
0.8468448575619594
0.9914243472326063
0.9487000609626298
0.9870901708553752
0.955190249239968
0.7155788075672253
0.7222809485991875
0.9956406839442784
0.9332076145551081
0.3307361673027944
0.902072626293598
0.9998923538009333
0.9538022785123097
0.987252337264809
0.9136192700099202
0.8302570809711918
0.49691912717744746
0.991679610948386
0.8110399851606538
0.6447567599051226
0.9155798017162958
0.3825447650601429
0.7488365200506257
0.48200068527032724
0.8204592144312178
0.13260693561273781
-0.3089058383911683
0.5549378244850971
0.2017523967750815
0.612863446133435
-0.18418648390604042
0.9888372290180072
0.2643334801176795
-0.12224824709528215
0.32451889549770885
-0.4863133138398015
-0.057857450251626655
-0.42746279363960543
0.7043595539438626
0.005135019999339963
-0.7318617885607949
-0.8141843866325998
-0.7057994094644281
-0.8770763488837802
-0.37117040547349966
-0.6916172128856698
0.5568260148818657
0.6237879552347351
0.7595808851575212
0.5903038205953102
0.9673554183023072
0.08208036503125773
-0.8207071038804313
-0.8387050769938517
0.74711939860317
-0.3171191105669849
-0.9133777935225238
0.07074539906029106
-0.9867034243134457
-0.563767550646724
0.5325777805411692
0.9822953794579382
0.1497574049876297
-0.9319428187657431
-0.7535072519441963
-0.9100577949779768
-0.9788014246135947
-0.9910080868348001
-0.9958811572718395
-0.9868963158719171
0.8091061903897193
-0.512088018075952
0.06460781112898648
-0.6534280784396316
-0.8969610429955447
0.7561946310636479
-0.9250530951641406
-0.8956666477829918
0.9916462959964067
-0.36890546740672286
-0.805078741334999
0.8965256102751584
-0.6229643450613787
-0.9997421750878256
-0.9153024107522566
-0.894733883089981
-0.9995694312324152
-0.8455636721822721
0.8918371100813038
-0.9640040666924868
-0.8419596669683411
-0.7576160976140217
-0.5242167752153168
-0.3836431482125599
-0.7546495963077426
0.18900926310539307
0.11761503101006467
0.3784634083115301
0.5601669405617643
0.7547763372092772
0.7125669042430638
0.8682939242727894
0.9451523361833982
0.9970809651734813
-0.9915959917786217
-0.7688161174401533
0.9793953523487642
0.9985824972515698
0.8996483982759529
0.5807472221712705
-0.6244014310456707
-0.47226366996456004
-0.7701159648597216
-0.7236688952304533
-0.9704165305586102
-0.8578289989373534
-0.07647768826376514
0.12082575259370922
0.996237030047747
-0.9817277266336621
0.5080606780844783
0.20959831280690758
-0.05922139480424128
-0.3670350649964104
-0.3209406332229891
-0.5975569655935805
-0.7858927184176479
-0.6341734916558386
0.9757692049186928
-0.9995329904595281
-0.9475930681468723
0.9947540386544058
0.9384612646533064
0.988550451770892
0.9844821451372044
0.8269158266679233
0.9117597450267476
0.6700089089031988
0.7870118752810479
0.47886992319417704
0.6199885575987375
0.2659256825806888
0.42219409333382235
0.04362445027289613
0.20567368509342568
-0.17688347064495621
-0.017388816346452243
-0.38546687804257834
-0.2358414525678183
-0.5729512641235341
-0.4398714484903951
-0.731645305651185
-0.6202348988787375
-0.8558290687292337
-0.7697162238123084
-0.9421784980463869
-0.8835233262537285
-0.989679847956989
-0.9594143741061877
-0.998691320129685
-0.9963272750191398
-0.9705095783704074
-0.9936066613540502
-0.90778027833615
-0.9523644504794281
-0.8137549241014204
-0.8756645391462118
-0.6916442722161285
-0.7681386567994134
-0.6363095399618368
-0.5476992580371024
-0.48853806690507945
-0.39099467930740367
-0.333051368100342
-0.5907422478019592
-0.444528894700869
-0.17562896542897588
-0.29198412547695557
-0.5625057686612221
-0.41788462127787523
-0.13715884813209825
-0.2655194122863405
-0.39867472018890976
-0.24152395960264456
-0.10664555882842633
-0.0776897313835285
-0.2049389414678372
0.05431959316020577
-0.31204950356368855
-0.14269693423439908
-0.39720296505658187
-0.23446001045639323
-0.4716714618756288
-0.31602769158994265
-0.5493602585816854
-0.0711448241037366
-0.4001220033157897
-0.6364651219233255
-0.4930063010524977
-0.590230076424838