# vtk DataFile Version 2.0
untitled, Created by Gmsh 4.9.5 
ASCII
DATASET UNSTRUCTURED_GRID
POINTS 12 double
0 0 0
1 0 0
1 1 0
0 1 0
0.5000000000000007 0 0
1 0.5000000000000007 0
0.4999999999999993 1 0
0 0.4999999999999993 0
0.2500000000000003 0.2499999999999997 0
0.6250000000000002 0.3750000000000002 0
0.7187499999999998 0.7187500000000003 0
0.3457031249999998 0.6542968749999998 0

CELLS 26 88
1 0
1 1
1 2
1 3
2 0 4
2 4 1
2 1 5
2 5 2
2 2 6
2 6 3
2 3 7
2 7 0
3 5 9 1
3 1 9 4
3 7 11 3
3 3 11 6
3 6 10 2
3 2 10 5
3 4 8 0
3 0 8 7
3 9 11 8
3 8 11 7
3 4 9 8
3 10 11 9
3 6 11 10
3 5 10 9

CELL_TYPES 26
1
1
1
1
3
3
3
3
3
3
3
3
5
5
5
5
5
5
5
5
5
5
5
5
5
5

POINT_DATA 12 
SCALARS sample_scalars float 1 
LOOKUP_TABLE my_table 
0.3894183423086506
0.965657776549278
-0.9568933495204898
0.965657776549278
-0.9824526126243308
-0.5856373399743149
-0.5856373399742775
-0.9824526126243345
-1.6737831790870652
2.1192490551704513
1.6983291671273435
2.089266252056642
