# vtk DataFile Version 2.0
untitled, Created by Gmsh 4.9.5 
ASCII
DATASET UNSTRUCTURED_GRID
POINTS 8864 double
0.5 0.125 0
0.4995803772560437 0.1301200992465301 0
0.4983614551247569 0.135111441681132 0
0.4964448277493894 0.1398797954473489 0
0.4939558606978369 0.1443771896863605 0
0.4910133138232851 0.1485928029919563 0
0.4877158474754793 0.1525377605767006 0
0.484140333543588 0.1562331328843099 0
0.4803450846308166 0.1597028454083862 0
0.4763740470953076 0.1629701916426208 0
0.4722604864537572 0.1660563887647682 0
0.4680298304941823 0.1689801643979895 0
0.4637017586178666 0.171757806203014 0
0.4592916803107324 0.1744034110647635 0
0.4548118332584736 0.176929156266053 0
0.4502720801130897 0.1793455689722213 0
0.4456803703302937 0.1816618299112442 0
0.4410432731554326 0.183885923192826 0
0.4363662819410218 0.1860248248589092 0
0.4316539466739194 0.1880847001661403 0
0.4269101130276275 0.1900709974733071 0
0.4221380690175942 0.1919885487817213 0
0.4173406307174178 0.1938416652327952 0
0.4125202268927356 0.1956342084281609 0
0.4076789688018466 0.1973696493689961 0
0.4028186996588642 0.1990511205203632 0
0.3979410377080853 0.2006814584739107 0
0.3930474101030986 0.202263240536512 0
0.3881390859988277 0.2037988142042738 0
0.3832171927765068 0.205290325989691 0
0.3782827364709664 0.206739743732791 0
0.3733366246015495 0.2081488742900053 0
0.3683796704552563 0.209519383278067 0
0.3634126110331355 0.2108528079557095 0
0.3584361141422543 0.2121505708811626 0
0.3534507869383166 0.2134139911201434 0
0.3484571829380666 0.2146442941780411 0
0.3434558077972302 0.2158426208100966 0
0.3384471276812617 0.217010034019497 0
0.3334315657878224 0.2181475277906911 0
0.3284095180174588 0.2192560304687253 0
0.3233813441267696 0.2203364129906445 0
0.3183473825649005 0.2213894911330058 0
0.3133079406020369 0.2224160325471732 0
0.3082633089799343 0.2234167580803511 0
0.3032137541652166 0.2243923473176618 0
0.2981595291868824 0.2253434399808529 0
0.293100867386267 0.2262706403459987 0
0.2880379850754203 0.2271745195589671 0
0.2829710884011094 0.2280556170015406 0
0.2779003691960564 0.2289144434140099 0
0.2728260067170968 0.2297514827039463 0
0.2677481729760983 0.230567193018227 0
0.2626670273214187 0.2313620094177572 0
0.2575827192910784 0.2321363450009535 0
0.2524953918935087 0.2328905918837874 0
0.2474051809207636 0.2336251226850758 0
0.2423122131724323 0.2343402920209076 0
0.2372166092029958 0.2350364372373514 0
0.2321184864478472 0.2357138790557559 0
0.2270179517865159 0.2363729235403109 0
0.221915110810173 0.237013861752159 0
0.2168100610471346 0.2376369714582921 0
0.2117028987979205 0.2382425170377047 0
0.2065937140360899 0.238830750821333 0
0.2014825913030497 0.2394019136099262 0
0.1963696155726293 0.2399562346286234 0
0.191254864465874 0.2404939329624451 0
0.1861384153288187 0.2410152173043681 0
0.1810203386281553 0.2415202871292559 0
0.1759007070021674 0.242009332233624 0
0.1707795861141445 0.2424825340653562 0
0.1656570415618503 0.2429400654413544 0
0.1605331359292923 0.243382091199616 0
0.1554079289119219 0.2438087685188122 0
0.1502814790935583 0.2442202470853453 0
0.1451538432898588 0.2446166694534522 0
0.1400250759900215 0.2449981713647099 0
0.1348952296132352 0.2453648819806863 0
0.1297643554769723 0.2457169240536631 0
0.1246325038196359 0.2460544141573451 0
0.1194997229807889 0.2463774629532586 0
0.1143660597370614 0.2466861753600781 0
0.1092315601000145 0.2469806506884691 0
0.1040962687407315 0.2472609828487449 0
0.09896022931622074 0.2475272604906968 0
0.09382348514864958 0.2477795671199409 0
0.08868607678407392 0.2480179813545182 0
0.08354804634385943 0.248242576843426 0
0.07840943288386015 0.2484534226021173 0
0.07327027600795934 0.2486505829580166 0
0.06813061485832284 0.2488341177036409 0
0.06299048693720675 0.2490040822300353 0
0.05784992972225755 0.2491605275518174 0
0.05270898012069148 0.2493035004069265 0
0.04756767453687285 0.2494330433253046 0
0.04242604901079707 0.2495491946896219 0
0.03728413921076873 0.249651988793629 0
0.03214198018985496 0.2497414558971563 0
0.02699960688372349 0.2498176222604716 0
0.02185705402929776 0.2498805101860275 0
0.01671435623021624 0.2499301380511848 0
0.01157154759025912 0.2499665203380405 0
0.006428662339823018 0.2499896676481002 0
0.001285734597859759 0.2499995867209528 0
-0.00385720166379058 0.2499962804434908 0
-0.009000112401668517 0.2499797478535916 0
-0.01414296362442587 0.249949984138634 0
-0.01928572112759158 0.2499069806297342 0
-0.02442835072530564 0.2498507247878545 0
-0.02957081814869611 0.2497812001850681 0
-0.03471308866339948 0.2496983864860145 0
-0.03985512745729889 0.2496022594135442 0
-0.04499689950579651 0.2494927907136758 0
-0.05013836956920842 0.2493699481127127 0
-0.05527950168349512 0.2492336952817211 0
-0.06042025967221373 0.2490839917709831 0
-0.06556060688764392 0.2489207929547448 0
-0.07070050614618974 0.2487440499657136 0
-0.07583991992937048 0.2485537096127395 0
-0.0809788099962013 0.2483497143114849 0
-0.08611713695074343 0.2481320020149633 0
-0.09125486134019389 0.2479005060714209 0
-0.09639194284183737 0.2476551551492985 0
-0.1015283400471596 0.2473958731348989 0
-0.1066640104809339 0.2471225790108353 0
-0.1117989112563896 0.2468351866872533 0
-0.1169329983613371 0.2465336048934171 0
-0.1220662265199245 0.2462177370331964 0
-0.1271985490398186 0.2458874810314753 0
-0.1323299176436001 0.2455427291711424 0
-0.1374602844843997 0.2451833677629386 0
-0.1425895977550787 0.24480927724201 0
-0.1477178059829034 0.2444203316534703 0
-0.1528448557441821 0.2440163985740358 0
-0.1579706914201279 0.2435973388856825 0
-0.1630952549275982 0.2431630065365483 0
-0.1682184882504167 0.2427132480359434 0
-0.1733403288405533 0.2422479025391949 0
-0.1784607135700105 0.2417668011765552 0
-0.183579576119112 0.2412697669301674 0
-0.1886968477029901 0.240756614191953 0
-0.1938124571001694 0.2402271483507671 0
-0.1989263302013278 0.239681165397983 0
-0.2040383895618077 0.2391184515057228 0
-0.209148553948937 0.2385387825758969 0
-0.2142567390203902 0.2379419236223723 0
-0.2193628562779046 0.2373276283037702 0
-0.224466812899463 0.2366956383175831 0
-0.2295685139722247 0.2360456824331164 0
-0.2346678560714337 0.2353774765653179 0
-0.2397647333940436 0.2346907222092197 0
-0.2448590330208671 0.2339851061923388 0
-0.249950638174215 0.2332602993011239 0
-0.2550394245112549 0.2325159557766218 0
-0.2601252594138356 0.2317517123442537 0
-0.265208004667154 0.2309671866252906 0
-0.2702875145784746 0.2301619760961011 0
-0.2753636327285265 0.2293356571870773 0
-0.2804361950207523 0.2284877832531099 0
-0.285505026441336 0.2276178833941519 0
-0.2905699398443409 0.2267254608182165 0
-0.2956307392759414 0.2258099902028441 0
-0.300687210808343 0.224870917080593 0
-0.3057391309526523 0.2239076538381626 0
-0.3107862555992312 0.2229195790338331 0
-0.3158283280440374 0.2219060328375212 0
-0.320865067524296 0.2208663159178672 0
-0.3258961760676389 0.2197996843429906 0
-0.3309213290780916 0.2187053473531492 0
-0.3359401818038611 0.21758246130126 0
-0.3409523538447408 0.2164301278325868 0
-0.3459574364476238 0.2152473864464328 0
-0.3509549863447257 0.214033209239507 0
-0.3559445184840949 0.2127864951747725 0
-0.3609255020164154 0.2115060626467152 0
-0.36589736062382 0.2101906397031542 0
-0.3708594537755036 0.208838857915548 0
-0.3758110851186308 0.2074492375275377 0
-0.3807514765341029 0.2060201800159613 0
-0.3856797707669581 0.2045499506682542 0
-0.390595012551826 0.2030366645276592 0
-0.3954961374681142 0.2014782670304947 0
-0.4003819493666086 0.1998725144084073 0
-0.405251107318306 0.1982169464747091 0
-0.4101020844280583 0.1965088632390077 0
-0.41493316458111 0.1947452816193977 0
-0.4197423616213444 0.1929229112029478 0
-0.4245274328629449 0.1910380850091435 0
-0.4292857485260557 0.1890867313258096 0
-0.4340142764329971 0.1870642851467039 0
-0.4387094667663343 0.1849656171118076 0
-0.4433671185714228 0.1827849451466783 0
-0.4479822541264638 0.1805157072298982 0
-0.4525489013943169 0.1781504302938819 0
-0.4570598151996265 0.1756805715546422 0
-0.4615061376529188 0.1730963128191011 0
-0.4658769220216734 0.1703863233306657 0
-0.4701584505704098 0.1675375065069283 0
-0.4743333366351954 0.1645347044984865 0
-0.478379247479405 0.1613604314305385 0
-0.4822671399607407 0.1579947019554725 0
-0.4859588166961727 0.1544151624116454 0
-0.489403657286426 0.1505979250070568 0
-0.4925345895395529 0.1465198717861889 0
-0.4952640740450373 0.142163728033836 0
-0.4974826372014186 0.1375275338832152 0
-0.4990654978361541 0.1326388352742406 0
-0.4998944272618976 0.1275685792826403 0
-0.4998944272618971 0.1224314207173542 0
-0.4990654978361528 0.1173611647257541 0
-0.4974826372014166 0.1124724661167797 0
-0.4952640740450346 0.1078362719661592 0
-0.4925345895395498 0.1034801282138067 0
-0.4894036572864224 0.09940207499293888 0
-0.485958816696169 0.09558483758835079 0
-0.4822671399607367 0.09200529804452388 0
-0.4783792474794007 0.08863956856945801 0
-0.4743333366351909 0.08546529550151014 0
-0.4701584505704051 0.08246249349306845 0
-0.4658769220216686 0.07961367666933125 0
-0.461506137652914 0.0769036871808961 0
-0.4570598151996216 0.07431942844535508 0
-0.4525489013943121 0.0718495697061155 0
-0.4479822541264589 0.06948429277009931 0
-0.4433671185714178 0.06721505485331927 0
-0.4387094667663293 0.06503438288819011 0
-0.434014276432992 0.06293571485329386 0
-0.4292857485260505 0.06091326867418823 0
-0.4245274328629398 0.05896191499085444 0
-0.4197423616213392 0.05707708879705016 0
-0.4149331645811047 0.05525471838060037 0
-0.4101020844280531 0.05349113676099043 0
-0.4052511073183007 0.05178305352528899 0
-0.4003819493666034 0.050127485591591 0
-0.395496137468109 0.0485217329695036 0
-0.3905950125518207 0.04696333547233909 0
-0.3856797707669528 0.04545004933174425 0
-0.3807514765340976 0.04397981998403712 0
-0.3758110851186255 0.0425507624724608 0
-0.3708594537754983 0.04116114208445054 0
-0.3658973606238147 0.03980936029684433 0
-0.3609255020164099 0.03849393735328342 0
-0.3559445184840896 0.03721350482522612 0
[...]
POINT_DATA 8864 
SCALARS sample_scalars float 1 
LOOKUP_TABLE my_table 
0.49953739945751435
0.5653384429570855
0.6159453352782152
0.6527459467054973
0.6778525162321816
0.6934014428749657
0.7011976697940625
0.7026324270222273
0.6987294657631187
0.690226627862643
0.67765310496951
0.6613911468607545
0.6417220619171085
0.6188593536299722
0.5929725475305213
0.5642042475688518
0.5326814993321876
0.49852504736577563
0.46185547158984763
0.42279667931845827
0.3814792560924196
0.3380425160011924
0.29263553100916073
0.2454177578963007
0.19655924848535905
0.14624044051301818
0.09465170416430786
0.04199265170492125
-0.011528674003368862
-0.06569688480451871
-0.12029036189937421
-0.17508239716905882
-0.2298425798309925
-0.2843380579172809
-0.33833493247469043
-0.39159963568206085
-0.44390031395094504
-0.4950082011908075
-0.5446989334669504
-0.5927539389417341
-0.6389615860769935
-0.683118508981635
-0.7250306415876044
-0.7645143965360401
-0.8013975520992603
-0.835520235694582
-0.8667356736159373
-0.894910966574635
-0.9199276966211289
-0.9416824200997792
-0.960087116460031
-0.9750694977613663
-0.9865732111574944
-0.9945579711317311
-0.9989995613931446
-0.9998897480107634
-0.9972361055895044
-0.9910617455539609
-0.9814049584741292
-0.9683187850088734
-0.9518704832071649
-0.9321409641154732
-0.9092241194324389
-0.8832261370965059
-0.8542647165581084
-0.8224682582405712
-0.7879750511297502
-0.7509323424025558
-0.711495475300842
-0.6698269122863785
-0.6260953646873989
-0.5804747708657221
-0.5331434043645746
-0.48428290542597313
-0.43407734793338104
-0.38271233945225475
-0.33037411928058136
-0.2772486819912069
-0.22352093891308086
-0.1693739211878351
-0.11498801031180925
-0.060540199749806775
-0.006203411697534499
0.047854135965532306
0.10146953023390468
0.1544857054154555
0.20675193250076399
0.2581242897489235
0.30846601371325555
0.3576478898807648
0.40554851043470036
0.45205452853102535
0.497060863447315
0.5404708323631856
0.582196255674191
0.6221575115963457
0.6602835471522837
0.696511849190056
0.7307883777687715
0.7630674575538593
0.7933116391090069
0.8214915271142602
0.8475855812281916
0.8715798845386873
0.8934678925314032
0.9132501587896299
0.9309340403903484
0.946533387939676
0.9600682199841362
0.9715643871204197
0.9810532254177805
0.988571202423983
0.994159559617083
0.9978639506840027
0.9997340791075042
0.9998233367052833
0.9981884453281188
0.9948891024080593
0.9899876325980979
0.9835486463503603
0.9756387076155221
0.9663260119242998
0.9556800724022027
0.9437714203371503
0.9306713177588034
0.9164514826406732
0.9011838256832064
0.8849402048631856
0.8677921932775375
0.8498108618305107
0.8310665769239463
0.8116288047409922
0.7915659544068094
0.770945203691934
0.7498323639761204
0.7282917524600365
0.7063860787276781
0.6841763329828252
0.6617217184423859
0.6390795601216678
0.616305254625383
0.5934522176314119
0.5705718460335221
0.5477134933844188
0.5249244559188176
0.5022499685823948
0.4797332054634296
0.45741529676338766
0.43533535009881313
0.4135304693177065
0.39203581757736927
0.3708846330418323
0.35010829706121793
0.32973637429717784
0.3097966865139535
0.29031537783786315
0.27131697121293674
0.2528244464897464
0.23485932557185446
0.21744173715837317
0.2005905065362427
0.18432323909168208
0.16865639107014765
0.15360538076236085
0.13918464534710162
0.1254077569990462
0.11228748320710252
0.09983590097563051
0.08806446112690891
0.07698409343955447
0.0666052730320709
0.05693813358521155
0.04799252919175481
0.039778124410295206
0.03230448178472708
0.02558114028756579
0.01961768717494036
0.014423851200507862
0.010009559725845791
0.006385030370939695
0.00356082937010376
0.0015479464206946416
0.0003578587333730012
2.595239766372398e-06
0.0004947941675465563
0.0018477555715082057
0.004075494902577055
0.007192767185290648
0.011215129078576235
0.016158906546633416
0.02204123176409327
0.028879997668491975
0.03669375810124967
0.045501633767984065
0.055323065402924455
0.06617741407177999
0.07808340678496063
0.09105823608207954
0.10511603486512025
0.12026557641548145
0.13650649406445642
0.15382322011771515
0.17217511008761108
0.19148047733329496
0.21159143669757857
0.2322566721944686
0.25307397525626235
0.2734504086961997
0.2926165148741312
0.30975104326520997
0.3241987867622768
0.33564289531765495
0.34411101199884764
0.34985460270105356
0.35321557898287526
0.35454042541701164
0.3541412856768639
0.35228495631648027
0.3491945151559387
0.3450553187045156
0.3400216937983609
0.3342229492433889
0.3277683729001759
0.32075119898341026
0.31325177918403496
0.3053400334256818
0.297077343773147
0.28851808451149186
0.2797108453903327
0.2706993269683081
0.2615231231748974
0.25221837377499756
0.2428181456270057
0.23335297436847208
0.22385107750140926
0.21433871072580601
0.20484034097984866
0.1953788673544134
0.18597576603915586
0.176651236380542
0.16742431075839415
0.1583129671649114
0.14933419228812952
0.14050408908900824
0.1318379151213706
0.12335016417780656
0.11505460914467369
0.10696434916589058
0.09909185872191727
0.09144903133989347
0.08404720059469804
0.07689719395157069
0.07000935142949509
0.06339356588322613
0.05705929951824722
0.05101562350324036
0.04527123144375657
0.0398344751374792
0.03471337666271014
0.02991565922147684
0.02544876335473338
0.021319867467949394
0.01753590877289874
0.01410359828253376
0.011029440048437146
0.00831974768685482
0.005980657434101575
0.00401814279263248
0.002438028878570906
0.0012460028493208675
0.0004476258244278168
4.8341174147913494e-05
5.348412346822931e-05
0.00046828822463512753
0.0012978912008097174
0.002547339186689684
0.004221589741523234
0.006325513266905498
0.008863892706958441
0.011841421445713029
0.015262699659542956
0.01913222950850692
0.02345440593816549
0.028233510611856548
0.033473696859747805
0.03917897834781554
0.045353213473699916
0.05200008742871808
0.059123088891153336
0.06672549310337868
0.0748103307923728
0.08338036306216975
0.09243805082942048
0.10198552148264058
0.11202453269759377
0.12255643210837354
0.13358211664728992
0.1451019878193375
0.1571159033871632
0.16962312436171983
0.18262226332393963
0.1961112261287164
0.21008715030828592
0.22454634175627566
0.23948420756558983
0.2548951850858952
0.27077267014262885
0.28710893918880576
0.3038950698865421
0.3211208583731606
0.3387747355396611
0.356843678183843
0.37531311860622213
0.3941668532308605
0.41338694754692806
0.4329536408206965
0.4528452482532867
0.47303806318083463
0.49350625965292705
0.514221791611018
0.5351542965322874
0.5562709985673485
0.57753661410078
0.598913257455698
0.6203603529870747
0.6418345504282225
0.6632896447657948
0.6846765025613545
0.7059429980501871
0.7270339486921645
0.747891072032385
0.7684529526016176
0.7886550027053987
0.8084294701802296
0.8277054259132189
0.8464087953762703
0.8644623966993472
0.881786001021769
0.8982964185098448
0.9139076042073488
0.9285307924550238
0.9420746632345726
0.9544455361162298
0.9655475948569047
0.975283149462371
0.9835529368397273
0.9902564595495168
0.9952923620986348
0.9985588543059184
0.999954180041006
0.9993771285538368
0.9967275984285443
0.9919072092131342
0.9848199611100549
0.9753729565375627
0.9634771547354359
0.9490481971898236
0.932007283459471
0.9122820755063812
0.8898076901774018
0.864527689158412
0.8363951832692886
0.8053739017856718
0.7714393457433365
0.7345799796244247
0.6947984202197496
0.6521126458148387
0.6065572484115664
0.5581846920177468
0.5070664826658614
0.45329441370394075
0.3969817497049197
0.3382642928225765
0.2773015039827284
0.214277502478774
0.1494018480277041
0.08291041041624138
0.015065857211026221
-0.053841734634465926
-0.12349479006703358
-0.1935480353660227
-0.2636288750674576
-0.3333377090476868
-0.40224882909548076
-0.4699114937732924
-0.5358514168554118
-0.5995726496080449
-0.6605598878702671
-0.7182812736988831
-0.7721915808172479
-0.8217361063613339
-0.8663549276278901
-0.9054878186243333
-0.938579836201706
-0.9650874290501782
-0.9844852592240295
-0.9962736991906633
-0.9999870422815168
-0.9952024273849612
-0.9815495639255116
-0.958721161042155
-0.9264842241079254
-0.8846929607473011
-0.8333016079945763
-0.7723786529828249
-0.7021246963859239
-0.6228898431732232
-0.535195304031643
-0.4397594722060375
-0.3375290859442346
-0.22971922098572464
-0.1178644097233547
-0.0038826375626886335
0.10985305018508368
0.22046015356780682
0.32458272729515547
0.4186571723092884
0.40182727153113756
0.7426778459300544
0.9955498315561864
0.46615867047316145
0.17430257207385957
0.9199331632371779
0.6063390527981773
0.2774384563160968
0.12398109037754007
0.09480982707963938
0.9817034920758729
0.7529317258759914
-0.2522410877855901
0.7644384750050915
0.8961693588573276
0.884776194398999
0.04233979306129829
0.996163247189999
0.6107186222884043
-0.6025474469125512
0.010517460023014546
0.9734693028188829
0.4521127462992229
-0.8608265108678571
2.5953791749598436e-06
0.8349523241001183
0.3051654182158222
-0.993455529398539
0.008759743746481915
0.5536606515754549
0.036046114444374805
-0.955611532687651
0.18270089286084049
0.13530115975033488
0.07208870612327394
-0.7943627949631554
0.09849605536737294
-0.541329999259597
0.04024230618066126
-0.2665177605061001
0.11566242163535881
-0.24132765625187674
0.006442043303447707
-0.6594906648450691
0.16481871211433535
0.07322478505744724
0.21993194071955507
-0.9338433550404144
0.0016005104890982115
0.5019112995234418
0.9570199840198963
0.3603940450341836
0.027992321039038256
-0.9853952931601224
0.27531401775622394
0.5117471624192738
0.3088608963068036
-0.7928846324259918
0.07492889332322522
0.6153499573265585
0.1461217803079357
-0.3854198970764164
0.33115462465171225
0.5562551003520356
0.2507260113290257
0.035422411045278296
0.8568353412123284
0.3466439236908088
0.9643464321755909
0.6374324370471139
0.9994977452831488
0.23066465599966154
0.6704931368324203
0.32895368582630913
0.9524998958577486
0.13842399106139558
0.8134915107563714
-0.0343673585329474
0.8449911706249583
0.07057812865617683
-0.4074017006338316
0.7058415798141042
0.026144365445337464
0.9988281111680058
-0.7339711583259223
0.5417602919744676
0.0033123715326827063
0.9279986651665297
-0.9381751360619366
0.39103583857931606
0.0015885091341374389
0.7316018662816222
-0.998471510825467
0.019110080998572795
0.25024158991835443
0.39212322662749427
-0.8844268297970255
0.13849021541839487
0.05294535459227947
-0.6683427077155383
-0.06309713291779566
0.06543775136263973
0.09377737473006244
-0.3958725220894321
-0.46662258408546936
0.019957274004425003
0.1395451031385338
-0.8200757977836687
-0.07299166003341975
0.0003990454725279241
0.19394886546971274
0.3255786289818128
-0.9948441355492843
0.22018025709170277
0.24778101850559814
0.010586513921105052
0.6289345904563065
0.19913721380180724
0.3220951402008264
0.30061450649533056
0.4417278198447237
0.8043322944907471
0.5426650156709677
0.31099350243044255
0.983817721780099
0.5577513595020175
0.9935677457017245
0.2018263029919563
0.7123370006351677
0.2288994766808573
0.9270500613979714
0.11656955991562709
0.8503932697528249
0.9177294623999869
-0.13708225713314706
0.8090572930337017
0.05568464368529468
0.9757828328004747
-0.5096468480096724
0.6540161127603785
0.01754409356381728
0.9903811558381856
-0.7966528516583418
0.0008810359259239906
0.4979748980760064
0.8868306127964695
-0.9742194142474923
0.004651980923309262
0.3486442806041735
0.6448103467967755
-0.9847385226170092
0.21654767594384203
0.02602580529886142
0.27314197427453374
-0.9349254272284254
0.4295485180679471
0.04362006042380032
0.28805919684555
0.5798022175027132
-0.6392357924802506
0.31951113375310836
0.09996390478862797
-0.17184326157962979
0.32977239254686824
0.4504969210723746
0.9009491113055056
0.9263215816951176
0.9424263274562885
0.9477712554254977
0.9610404701426132
0.9653642337424081
0.952839751649865
0.9694201893610125
0.9792057913663567
0.9822809156965006
0.9732112346261452
0.9851000535892881
0.991548141455702
0.9934312830162768
0.9876657558931553
0.9950711107452155
0.9983468743456931
0.9991005382664307
0.9964704554906975
0.9996247497237761
0.9999087834835295
0.9996005889916203
0.999922554520435
0.9990777203261715
0.9965625829110563
0.9999970362045264
0.9983433836097267
0.999851314291667
0.9974008128630565
0.9994885418686643
0.996253266730099
0.9989119032136744
0.994904026725768
0.9981246117727224
0.9933563964603717
0.9971299078402364
0.9916136984202517
0.9858494270017898
0.9959310561585988
0.9896792689616403
0.9945313442615612
0.9875564633402528
0.9929340798026356
0.9852486480532837
0.9911425890982959
0.9827592009525401
0.9891602148762514
0.980091509506032
0.9869903143676189
0.971873145871098
0.9772489678617958
0.9846362572083674
0.9924993462897891
0.9906592776742686
0.9965489996841072
0.995248167690335
0.9990705784377795
0.9983338643471431
0.9999966125417464
0.99984841356061
0.9992611921083155
0.9997252977980214
0.996800318371434
0.9978997809403763
0.9925522711177424
0.9943092698093018
0.9886291731303885
0.9864579919503389
0.9888936917550736
0.9784614823564518
0.9815958874346074
0.9987653501353337
0.968510215794587
0.9723620179837097
0.9565555624549366
0.9611419851570993
0.942553225359577
0.9478898637686672
0.9654591032519133
0.9529517194540693
0.932564343721718
0.9383854118913014
0.9151291819781837
0.9217220400992429
0.8955536600876366
0.9029288214338788
0.8738130470837415
0.8819787914621766
0.8498890662940386
0.8588512698434538
0.8237703426175781
0.8335323226185231
0.7954529185976917
0.8060152322915813
0.76494066311199
0.7763009557766465
0.7322456919158726
0.7443985642223122
0.6973888786093443
0.7103257012738112
0.6604002322384022
0.6741090003799273
0.6213193033426504
0.6357844898113918
0.5801955612929056
0.5953979854925769
0.5370887454212574
0.5530054536742847
0.9695090657839968
0.49206918441601427
0.5086733324530315
0.8898559442447872
0.445218077245507
0.46247883631396414
0.39662773543262914
0.4145102004203867
0.7562637554365342
0.346401778967825
0.36486690761170654
0.29465528414702424
0.31365985735498375
0.24151487757569348
0.2610114622381188
0.5686650571496447
0.18711876644881964
0.20705571347221646
0.13161671015445958
0.15193817251398334
0.33247333433850534
0.07516992107541803
0.09581589885053275
0.01795089426589657
0.038857305727652496
-0.039856842562947456
-0.018758061203952445
0.05967658676845183
0.0022788200334123705
-0.07683982242781885
-0.05565587421636891
-0.13518714966258005
-0.11393042038692064
-0.19358923009322068
-0.1723375768890475
-0.25182583122959623
-0.23066047580071472
-0.30966795903059324
-0.2886732260125738
-0.3668785931954927
-0.34614163925030333
-0.4232135478526357
-0.4028240357575407
-0.4784224068749094
-0.4584721436505398
0.08039990876839868
-0.5322495690262283
-0.5128321256476563
-0.5844353928220793
-0.5656456646061909
-0.6347174333738292
-0.6166512067541604
-0.20945410209212792
-0.6828319057991955
-0.6655852346860551
-0.7285146354937221
-0.7121835736818136
-0.7715032058968638
-0.7561830805847155
-0.4932097768173788
0.8406359788681752
-0.8115383183646205
-0.7973230804847522
0.6841694596213563
0.9750680263061133
-0.8483652771919584
-0.8353469770237227
-0.8817361057762635
-0.8700041219998399
0.4752222187506118
-0.7404840661316963
-0.9114110043576619
-0.901051535296399
0.27546589935863025
0.9997799696955962
-0.9371604304352132
-0.9282557422808815
-0.9587669861513997
-0.951394666382682
-0.8901826927850368
0.0544214479140174
-0.27293899918985637
-0.976027333372824
-0.9702596417733503
-0.49818964170126817
-0.9887541928128692
-0.9846573264790238
-0.9967783609689992
-0.9944116997210471
-0.9799450191119331
-0.9914088094865738
-0.9993660242203432
-0.9981272490989688
-0.9993848021900851
-0.9999568914243079
-0.6997565207853298
-0.9943557142598003
-0.9967767851878611
-0.9841915277716656
-0.9884902445144147
-0.9746254863633251
-0.8609256047352218
-0.9688317198754255
-0.9750269155974384
-0.9482440853427667
-0.9563444929100238
-0.9655632544648577
-0.9985209098314864
-0.9224274436819224
-0.9324297767221923
-0.8914119595813517
-0.903300766314119
-0.8552594410196039
-0.8690085811028172
-0.9792038612944924
0.998568434728345
-0.9417407005170768
-0.8140671318830234
-0.8296373983934293
-0.7679669806361628
-0.7853062404920376
-0.878840395928995
-0.7171265395519649
-0.7361696443852431
-0.802008352231686
-0.754601511011885
-0.6824184633077203
-0.7025055745247896
-0.6242782880943009
-0.818066914048183
-0.6974818895611284
-0.6459342234419381
-0.5620148434420482
-0.5851396929021248
-0.4959290598076778
-0.9985019295306413
0.9997213085046146
0.9369399735860785
0.9920725478842273
-0.4709799104200108
-0.5204078862077075
-0.4263537521215513
-0.6670289596815466
0.9978925809295055
-0.45206127686357417
-0.35366101031409725
-0.38045810110910866
-0.27825065975965146
-0.2502025615881993
-0.47734461642583526
-0.305988955688765
-0.20056877679695173
-0.2290830608053106
-0.12108587983593083
-0.15020086820444736
-0.25733456206123634
-0.04028741394360801
-0.010648423280627947
-0.06983120171745921
0.07109832453790597
0.10089915470732484
-0.6020727333463227
-0.7978450168934729
-0.9805302357985086
-0.939450179672224
-0.8820846462983144
-0.9962403788975482
-0.9981435924816774
-0.8218824495175228
-0.9212502027928279
-0.7864320693165234
-0.6480291255955817
-0.9434558985960896
-0.38229752098593994
-0.6029729958017856
-0.092691354063634
-0.3874995823599755
-0.1564512256973302
0.4321706509067588
0.16703516629133405
0.3785284372145229
0.1721263923473343
0.564730268934367
-0.06100799324539772
0.9280326284699443
0.8162863186546438
0.649976357940787
0.8878915526870491
0.7532910112827325
0.9905506095189988
0.9994831999865678
0.9910799566681148
0.9742349766052738
0.9955960053426873
0.9995958611742658
0.9985592636851905
0.9779839824685879
0.9651003143846453
0.961474166007429
0.9507234861579473
0.9465329667856467
0.9342972293462704
0.9295898344606203
0.9159988213874614
0.9108214858610796
0.8960031004245922
0.8904019579577713
0.874481604063129
0.8685017759498997
0.8516018141213414
0.8452872244683519
0.8275265025872433
0.8624283670695971
0.8340593901018903
0.8092079844593574
0.8159368672592354
0.7903917953177116
0.7972949845309919
0.7711363201572522
0.7781927690743285
0.751498134023548
0.7586874620641111
0.7315319445061165
0.7388344568279825
0.7112905455882698
0.7186872485219086
0.690824782396485
0.6982973951422443
0.6701835260989051
0.6777144886674082
0.6494136582089076
0.6569861361284149
0.6285600639727524
0.636157949661598
0.6076656335944567
0.6152735450157814
0.5867712714268657
0.5943745479753563
0.5659159119311218
0.5735006077290412
0.5451365419849205
0.5526894172035683
0.5244682292259266
0.5319767390255451
0.5602553608821825
0.5395028049127917
0.5113964367708219
0.5188705160800052
0.49098051321043745
0.49839116750790663
0.4707591482903488
0.478095601212602
0.45076074642518266
0.4580128617789709
0.5470448245212427
0.43101198323806056
0.4381702466338611
0.41153785747160077
0.4185933597425388
0.39236174446210453
0.3993061610315552
0.445363735280452
0.37350545188910683
0.380331022137385
0.35498927628170407
0.3616887832518742
0.3368320623157307
0.34339881161270525
0.31905126669265155
0.32547906045247876
0.3500146285484652
0.33195812261575525
0.3079461344935794
0.31428254968543345
0.2908153427539153
0.2970036827499257
0.2741007620673704
0.2801360412531497
0.25781530309944795
0.2636929539102414
0.24197076749773205
0.24768661859238386
0.22657790891635282
0.23212816334135258
0.21164649298489668
0.21702770653494816
0.19718535631495185
0.20239441624241722
0.18320246447732197
0.1882365684438003
0.16970496873549226
0.17456160433196086
0.15669926160484218
0.16137618625617112
0.3566786701082366
0.14419102901374595
0.14868625200701963
0.1321853094202779
0.13649706892021893
0.2696284899922281
0.12068653455135399
0.12481328358881542
0.10969858695835026
0.11363897300334984
0.19333466385358108
0.09922484189885421
0.1029776940491957
0.08926821563119348
0.09283252032982156
0.07983120880417033
0.08320610066896755
0.1290075428562511
0.07091594216251934
0.07410068979508351
0.06252420534736353
0.06551819202710152
0.05465748783885158
0.05746020627869481
0.07735473130746863
0.04731701699830613
0.04992804904580985
0.0405037879358296
0.04292279597369453
0.03421859680277508
0.03644531230911068
0.02846206857330153