# vtk DataFile Version 2.0
untitled, Created by Gmsh 4.10.0 
ASCII
DATASET UNSTRUCTURED_GRID
POINTS 5962 double
0 0 0
1 0 0
1 1 0
0 1 0
0.01408450704225353 0 0
0.02816901408450706 0 0
0.0422535211267606 0 0
0.05633802816901413 0 0
0.07042253521126766 0 0
0.08450704225352119 0 0
0.09859154929577472 0 0
0.1126760563380283 0 0
0.1267605633802818 0 0
0.1408450704225354 0 0
0.1549295774647889 0 0
0.1690140845070424 0 0
0.183098591549296 0 0
0.1971830985915496 0 0
0.2112676056338031 0 0
0.2253521126760567 0 0
0.2394366197183102 0 0
0.2535211267605638 0 0
0.2676056338028173 0 0
0.2816901408450709 0 0
0.2957746478873244 0 0
0.309859154929578 0 0
0.3239436619718316 0 0
0.3380281690140851 0 0
0.3521126760563387 0 0
0.3661971830985922 0 0
0.3802816901408458 0 0
0.3943661971830993 0 0
0.4084507042253529 0 0
0.4225352112676064 0 0
0.43661971830986 0 0
0.4507042253521135 0 0
0.464788732394367 0 0
0.4788732394366205 0 0
0.492957746478874 0 0
0.5070422535211274 0 0
0.5211267605633808 0 0
0.5352112676056343 0 0
0.5492957746478878 0 0
0.5633802816901413 0 0
0.5774647887323947 0 0
0.5915492957746482 0 0
0.6056338028169017 0 0
0.6197183098591551 0 0
0.6338028169014085 0 0
0.647887323943662 0 0
0.6619718309859156 0 0
0.676056338028169 0 0
0.6901408450704224 0 0
0.7042253521126759 0 0
0.7183098591549294 0 0
0.7323943661971828 0 0
0.7464788732394363 0 0
0.7605633802816898 0 0
0.7746478873239433 0 0
0.7887323943661967 0 0
0.8028169014084501 0 0
0.8169014084507036 0 0
0.8309859154929571 0 0
0.8450704225352106 0 0
0.859154929577464 0 0
0.8732394366197175 0 0
0.887323943661971 0 0
0.9014084507042245 0 0
0.915492957746478 0 0
0.9295774647887316 0 0
0.9436619718309854 0 0
0.957746478873239 0 0
0.9718309859154927 0 0
0.9859154929577464 0 0
1 0.01408450704225353 0
1 0.02816901408450706 0
1 0.0422535211267606 0
1 0.05633802816901413 0
1 0.07042253521126766 0
1 0.08450704225352119 0
1 0.09859154929577472 0
1 0.1126760563380283 0
1 0.1267605633802818 0
1 0.1408450704225354 0
1 0.1549295774647889 0
1 0.1690140845070424 0
1 0.183098591549296 0
1 0.1971830985915496 0
1 0.2112676056338031 0
1 0.2253521126760567 0
1 0.2394366197183102 0
1 0.2535211267605638 0
1 0.2676056338028173 0
1 0.2816901408450709 0
1 0.2957746478873244 0
1 0.309859154929578 0
1 0.3239436619718316 0
1 0.3380281690140851 0
1 0.3521126760563387 0
1 0.3661971830985922 0
1 0.3802816901408458 0
1 0.3943661971830993 0
1 0.4084507042253529 0
1 0.4225352112676064 0
1 0.43661971830986 0
1 0.4507042253521135 0
1 0.464788732394367 0
1 0.4788732394366205 0
1 0.492957746478874 0
1 0.5070422535211274 0
1 0.5211267605633808 0
1 0.5352112676056343 0
1 0.5492957746478878 0
1 0.5633802816901413 0
1 0.5774647887323947 0
1 0.5915492957746482 0
1 0.6056338028169017 0
1 0.6197183098591551 0
1 0.6338028169014085 0
1 0.647887323943662 0
1 0.6619718309859156 0
1 0.676056338028169 0
1 0.6901408450704224 0
1 0.7042253521126759 0
1 0.7183098591549294 0
1 0.7323943661971828 0
1 0.7464788732394363 0
1 0.7605633802816898 0
1 0.7746478873239433 0
1 0.7887323943661967 0
1 0.8028169014084501 0
1 0.8169014084507036 0
1 0.8309859154929571 0
1 0.8450704225352106 0
1 0.859154929577464 0
1 0.8732394366197175 0
1 0.887323943661971 0
1 0.9014084507042245 0
1 0.915492957746478 0
1 0.9295774647887316 0
1 0.9436619718309854 0
1 0.957746478873239 0
1 0.9718309859154927 0
1 0.9859154929577464 0
0.9859154929577465 1 0
0.9718309859154929 1 0
0.9577464788732394 1 0
0.9436619718309859 1 0
0.9295774647887324 1 0
0.9154929577464788 1 0
0.9014084507042253 1 0
0.8873239436619718 1 0
0.8732394366197183 1 0
0.8591549295774646 1 0
0.8450704225352111 1 0
0.8309859154929575 1 0
0.816901408450704 1 0
0.8028169014084504 1 0
0.7887323943661969 1 0
0.7746478873239433 1 0
0.7605633802816898 1 0
0.7464788732394363 1 0
0.7323943661971827 1 0
0.7183098591549291 1 0
0.7042253521126756 1 0
0.6901408450704221 1 0
0.6760563380281684 1 0
0.6619718309859148 1 0
0.6478873239436613 1 0
0.6338028169014078 1 0
0.6197183098591542 1 0
0.6056338028169006 1 0
0.5915492957746471 1 0
0.5774647887323936 1 0
0.5633802816901401 1 0
0.5492957746478865 1 0
0.5352112676056331 1 0
0.5211267605633796 1 0
0.5070422535211261 1 0
0.4929577464788726 1 0
0.4788732394366192 1 0
0.4647887323943657 1 0
0.4507042253521122 1 0
0.4366197183098587 1 0
0.4225352112676053 1 0
0.4084507042253518 1 0
0.3943661971830983 1 0
0.3802816901408449 1 0
0.3661971830985915 1 0
0.352112676056338 1 0
0.3380281690140844 1 0
0.323943661971831 1 0
0.3098591549295776 1 0
0.2957746478873241 1 0
0.2816901408450706 1 0
0.2676056338028172 1 0
0.2535211267605637 1 0
0.2394366197183102 1 0
0.2253521126760567 1 0
0.2112676056338033 1 0
0.1971830985915499 1 0
0.1830985915492964 1 0
0.1690140845070429 1 0
0.1549295774647894 1 0
0.140845070422536 1 0
0.1267605633802825 1 0
0.112676056338029 1 0
0.09859154929577552 1 0
0.08450704225352201 1 0
0.0704225352112684 1 0
0.05633802816901456 1 0
0.04225352112676095 1 0
0.02816901408450734 1 0
0.01408450704225361 1 0
0 0.9859154929577465 0
0 0.9718309859154929 0
0 0.9577464788732394 0
0 0.9436619718309859 0
0 0.9295774647887324 0
0 0.9154929577464788 0
0 0.9014084507042253 0
0 0.8873239436619718 0
0 0.8732394366197183 0
0 0.8591549295774646 0
0 0.8450704225352111 0
0 0.8309859154929575 0
0 0.816901408450704 0
0 0.8028169014084504 0
0 0.7887323943661969 0
0 0.7746478873239433 0
0 0.7605633802816898 0
0 0.7464788732394363 0
0 0.7323943661971827 0
0 0.7183098591549291 0
0 0.7042253521126756 0
0 0.6901408450704221 0
0 0.6760563380281684 0
0 0.6619718309859148 0
0 0.6478873239436613 0
0 0.6338028169014078 0
0 0.6197183098591542 0
0 0.6056338028169006 0
0 0.5915492957746471 0
0 0.5774647887323936 0
0 0.5633802816901401 0
0 0.5492957746478865 0
0 0.5352112676056331 0
0 0.5211267605633796 0
0 0.5070422535211261 0
0 0.4929577464788726 0
0 0.4788732394366192 0
0 0.4647887323943657 0
0 0.4507042253521122 0
0 0.4366197183098587 0
0 0.4225352112676053 0
0 0.4084507042253518 0
0 0.3943661971830983 0
0 0.3802816901408449 0
0 0.3661971830985915 0
0 0.352112676056338 0
0 0.3380281690140844 0
0 0.323943661971831 0
0 0.3098591549295776 0
0 0.2957746478873241 0
0 0.2816901408450706 0
0 0.2676056338028172 0
0 0.2535211267605637 0
0 0.2394366197183102 0
0 0.2253521126760567 0
0 0.2112676056338033 0
0 0.1971830985915499 0
0 0.1830985915492964 0
0 0.1690140845070429 0
0 0.1549295774647894 0
0 0.140845070422536 0
0 0.1267605633802825 0
0 0.112676056338029 0
0 0.09859154929577552 0
0 0.08450704225352201 0
0 0.0704225352112684 0
0 0.05633802816901456 0
0 0.04225352112676095 0
0 0.02816901408450734 0
0 0.01408450704225361 0
0.5066484689730972 0.01219737912962282 0
0.4932567871131547 0.9878492589720742 0
0.9871805159497253 0.4961722096775358 0
0.01372625435150737 0.5042505900239658 0
0.9874647578032982 0.594035005987095 0
0.3953877774371105 0.988449605733119 0
0.01292961144406496 0.4062525733233044 0
0.6053481220003584 0.01219754088386943 0
0.01303568419561452 0.6021449680702655 0
0.5917933515252478 0.987849552888553 0
0.9865090963540026 0.3978241242429631 0
0.4072084251950286 0.01224241454383712 0
0.01316132510932078 0.7001355732378 0
0.6904309626674685 0.9878550687732075 0
0.3085775550320005 0.01219755162435632 0
0.7040017078363634 0.01219754089837133 0
0.9875358203666735 0.3127878151690383 0
0.9876976461467911 0.6792975068785955 0
0.3228094380513472 0.9878655633603171 0
0.01151709682033353 0.3214358758723677 0
0.9861370986092715 0.7644156446199505 0
0.238305235981943 0.9878548062392563 0
0.01222163328176634 0.235037221628051 0
0.9863993675224882 0.2356828780683317 0
0.7884406124543916 0.01219754089916775 0
0.01612653777740869 0.7848200446463283 0
0.7750542708462209 0.987853016670188 0
0.2238800382958292 0.01219754134370321 0
0.9871430167122637 0.8352603151864029 0
0.1678832735269643 0.9878455149501343 0
0.01383194865134829 0.1637494721999571 0
0.9873639303026649 0.1647520135692589 0
0.8587892349903244 0.01219760055853786 0
0.8454318997279204 0.9878502010224248 0
0.01272913823055594 0.8570208340201209 0
0.1535436605670394 0.0121975450664718 0
0.9862808442635799 0.8897617656050322 0
0.1116186989355453 0.98784697796818 0
0.01225598915864723 0.1068410433935692 0
0.9841967235232101 0.1097015554922597 0
0.9150799946585594 0.01216085134780653 0
0.902268294830314 0.9876913338866715 0
0.01740351602859991 0.9087660458575275 0
0.09693008772541023 0.01219950836547129 0
0.648191138443744 0.987854468051838 0
0.01210308571463325 0.2751780185891711 0
0.01707317070656272 0.6559151178213738 0
0.5495515559812887 0.9878495889821337 0
0.4644141582564484 0.01224108949595748 0
0.9861876530947953 0.4380506146543018 0
0.01181066707789891 0.5483073983050626 0
0.2805477576125364 0.9878585499533887 0
0.3648150392066367 0.01219751659409568 0
0.9880830343636072 0.3532806515943913 0
0.5490199025593506 0.01219753481662056 0
0.7327206620398024 0.9878512368403292 0
0.7462392771664044 0.01219754089837205 0
0.9883708237449699 0.7195419086178876 0
0.266141020610096 0.01219754722559308 0
0.9838808153597746 0.552634204220697 0
0.4367649271082319 0.9878499008380424 0
0.01546510325220463 0.4477969450305895 0
0.6617471932240654 0.01219754089835795 0
0.01270949389271764 0.7407766925126973 0
0.01205266543392258 0.3651875665584746 0
0.9877047601349682 0.6354851389647778 0
0.3643015185752377 0.9884664862322483 0
0.9870402224096668 0.06654198442106884 0
0.9873282491306039 0.933757312775809 0
0.06931975845685845 0.9878542454005552 0
0.01290479217722135 0.06655148806706834 0
0.9450998809079905 0.9877673303523902 0
0.01349354208157927 0.9469745449602296 0
0.9521360251076988 0.0112217144998849 0
0.0548910252422562 0.01226455450188391 0
0.8031986184238051 0.9878536511184519 0
0.01268700723711041 0.5753545284363262 0
0.8735837541797805 0.9877962133311115 0
0.01248798440207116 0.8156796024411271 0
0.8305970151272331 0.01219754211124624 0
0.9859080214214371 0.2053027834618771 0
0.4359059542376255 0.01234291845530355 0
0.01334451050345081 0.8807396395984073 0
0.5772223779495028 0.01219754063609629 0
0.9879065324422861 0.1382711316164564 0
[...]
POINT_DATA 5962 
SCALARS sample_scalars float 1 
LOOKUP_TABLE my_table 
0.9555013705347941
1.485361363672173
0.23327049664444233
1.4852872182100862
0.959240461127734
0.969756810190645
0.9856596667995993
1.0052986247043922
1.026890853310491
1.0485727966279523
1.068421127011995
1.0845558136009426
1.0950833537938818
1.0981772152085465
1.0920657110308973
1.0751152509311477
1.045812907465252
1.0028891617914075
0.9452762180632498
0.872227394051949
0.7833793112008193
0.6787429946324118
0.5588887444371917
0.4248670093463961
0.27831311283372784
0.12156474383865681
-0.042520815796679406
-0.21035117481570484
-0.37780523206203426
-0.5401466360736882
-0.6923756155540718
-0.8291308607296869
-0.944888368189586
-1.034536509988119
-1.0931076383909966
-1.116446764090974
-1.1011155604000775
-1.045141529268237
-0.948082117437221
-0.8113038578171708
-0.6381344288529293
-0.433895815062235
-0.20611503119630958
0.03599251926568645
0.28131432553882557
0.5177131253546817
0.7322723526152188
0.9123179531424005
1.0458500046794994
1.1228187778995764
1.1356125581319727
1.0801556777039174
0.9564982208670653
0.7692123144771811
0.5277967846553838
0.24626380146226537
-0.05716083976160622
-0.3616050449666133
-0.6441063574679589
-0.8813695620656061
-1.0528768361777057
-1.141550143375813
-1.135967073993543
-1.032553155684773
-0.8356639989126493
-0.5584741561195543
-0.22234927406549282
0.14517481920359576
0.5124047284291348
0.8482586398515115
1.1262087872825286
1.3255451331716719
1.432894279317571
1.478209853389379
1.4268980541731775
1.255501934752016
0.978696279646617
0.6142996587839021
0.19431035299594798
-0.23959792713313996
-0.6397982979508442
-0.9490902321920014
-1.1301115642383261
-1.1540834665247506
-1.0148053193988982
-0.7275970158416035
-0.3303432879406595
0.12056532145432149
0.5621373662888872
0.9207893754413945
1.133376526115927
1.1568782272014053
0.9983462352019339
0.6676909936852561
0.22514957952672396
-0.2708107219876624
-0.7239542007869186
-1.0456805390130426
-1.1798576781590988
-1.0942342542163508
-0.782313038377631
-0.33516309729264065
0.18533587896636483
0.6797425474032222
1.0410270051792974
1.1734515383102546
1.068556384372763
0.7357495294124835
0.2326072642103667
-0.3277395982622091
-0.8190753401032553
-1.127553490974779
-1.1587385124889973
-0.9349906969021708
-0.4769111223366658
0.10751066736355258
0.6667312431587913
1.0648482717059973
1.1914984833199296
0.9959382608748207
0.560516820307267
-0.04668116818332985
-0.6443875766097851
-1.0660596114295857
-1.1932951508725889
-0.9816807614646612
-0.4603170915546877
0.17336294367346636
0.7621955434023531
1.139606680973597
1.149734691894015
0.8266427875737712
0.23366768838968655
-0.44183024273428806
-0.9779496272386258
-1.196169613292339
-1.0116817193194014
-0.4651915896177272
0.213414837988061
0.8623799625056577
1.246142593557144
1.2466959253650733
0.9139601034731472
0.4622313452397422
0.4618785472058961
0.9123743791566491
1.2452172358355278
1.2444651171325793
0.865169280057394
0.21820524250024248
-0.4833896222771176
-1.0102216938209052
-1.1910209043143432
-0.9744053144198805
-0.44043426931991203
0.23197965371271145
0.8272616281793377
1.1599018926304545
1.1333236963800732
0.762458252640001
0.1657950176825883
-0.475925594016543
-0.9739821280158116
-1.1890249941440187
-1.0658117335823034
-0.6456507799355727
-0.050989558684048364
0.5530051466734869
1.004504570636901
1.1889450664725638
1.0635399861911723
0.667376362409561
0.10681566533804049
-0.4760339751326378
-0.9383823580788965
-1.171481520245672
-1.1263431334770646
-0.8197864840222931
-0.3281471735804141
0.23288777151028056
0.7378660135981546
1.077600644198565
1.1839097645543568
1.0401244621313366
0.682325824232223
0.18835695287447585
-0.3439543247155481
-0.7970382993107817
-1.0902883244952228
-1.1768386786097715
-1.0453305892104898
-0.7227327819504142
-0.2729601217193178
0.22038870471438654
0.6711680135872673
1.0035563952507298
1.1648946149957549
1.134425861395406
0.9224848853691263
0.567875726392941
0.12966304436176804
-0.3229341364729202
-0.7223849475420209
-1.01175374878315
-1.1527589946199366
-1.1296782314284795
-0.9497397464126698
-0.6405349674800148
-0.2440659887982862
0.19000673249359537
0.6112923681357006
0.9767635370536276
1.2542748297314097
1.4264189215594711
1.479302894786397
1.4358634835402835
1.3225983441674782
1.1262954777240484
0.8508168278025213
0.514962682006564
0.1313093766356693
-0.22232197416022337
-0.5567653303888956
-0.8358341266052064
-1.0324431647139518
-1.1350990038869424
-1.1412106808185762
-1.052271557555996
-0.8736515719672947
-0.6407173885391816
-0.36110464910046075
-0.05708862002883826
0.24659425916202637
0.528622128821015
0.7703443290061075
0.9584034534696626
1.082599978076647
1.1344136031247407
1.1239470511092948
1.047224006369065
0.913052774993316
0.7325418138909944
0.5178042008951237
0.28149271374017365
0.03643200829823488
-0.20522702137836024
-0.4339336399619012
-0.6398639907082893
-0.8113650461871175
-0.9474960905302217
-1.0444915632411487
-1.1007625002167551
-1.1147189344672348
-1.09310457559977
-1.0347375035895021
-0.9444360208466891
-0.8289592751252722
-0.6927953004051707
-0.5405471341356477
-0.3765297286953482
-0.2113084583274864
-0.043904632964330316
0.1209341827707983
0.27913072558957663
0.4256019392582777
0.5596743471120312
0.679152092666737
0.7838803227028204
0.8727091524831713
0.9460345054572424
1.003503875625469
1.0464972727561772
1.075731487564135
1.0920800219490452
1.0985650024166929
1.095409247678113
1.084779113519828
1.068595415000088
1.048669815302224
1.0269794064614255
1.005365427311878
0.9857035796436073
0.9697802364032595
0.9592464181460899
-0.7943658778200358
0.33778019588412
0.23712761361585502
-0.8157285161978897
0.06933026311159352
-0.3922767274228981
-0.9415216134003787
0.7552266248308953
0.7134373761247297
-0.018295249076794667
-0.34318713875522755
-0.9480381310994972
0.7939539383850278
-0.5214146937595353
0.11863923509162612
0.7380859899967829
-0.27108874690890583
-0.04416629750739848
-0.5994415883366396
-0.029839937127229904
0.1439856091167211
1.0846531845454224
0.8042853165938819
1.031876965567378
-0.9075053924705693
-0.8745281220250753
0.6404223170463853
0.872833189264346
0.20682456316674183
-0.8087798441974927
1.0816318286376563
-0.8809658565704392
-0.7996321286065562
-0.2919867105056576
-0.8280795088987684
1.0926322006452822
-1.044469568216561
-0.8756870608816985
1.0808277881202315
-0.8038476084432714
0.5565639020423692
-0.5973737704596241
0.44690506588722484
1.068710031706612
1.0557658152338454
0.4768031089146917
1.1382044831270588
-1.1730760665415707
-1.0966143874894738
0.9757900484356238
-0.19198858931142554
0.7735351514794155
-0.5427765529577908
-1.165313325567262
-0.17830931223012114
-1.0339474828978752
-0.09968000490820483
-1.1804127307820291
0.5589081756915995
-1.160280275878002
0.9735166470642674
-1.1150060754522546
1.1305184342169414
0.016314097213867056
-0.5471872986368042
1.1826131954973547
-1.1286200626806262
0.39223731556576935
0.8720754359843518
0.297757476801371
1.0242907901298282
1.2010792062611002
1.2028667760623004
1.262654094601859
1.0062794697777848
1.1693189737700136
0.2804910049214908
-1.1576548221545482
-1.1412175926039752
-1.1250421143614935
0.2662598634390219
-1.0956764886548653
-0.3206906836188618
0.3103990335969575
-1.1556826171397998
-0.7244824786318835
1.0127340532387306
1.1615140058073175
0.00774171803671663
1.046438638784433
0.9874004169322468
1.0956260876569284
-0.2142646936709856
1.057483204461983
1.0227874328859532
-0.7658971254611333
1.1079575852833086
1.05710465730609
-0.9360498637246185
-1.155897837336543
-1.0427954198857092
1.0987687241633255
-0.17229202796000528
1.083280720758013
1.2652065415112737
1.0468833968557825
0.9859838779055833
1.4222262666163654
1.0197759363643721
0.9719123124465796
1.4246952790842327
1.374459127200951
1.3341714797821964
1.1864950692916247
1.2155944100238392
1.0705370101663214
1.1703893779370929
1.1197528834531305
1.0531956973098935
1.1064943363015411
1.017762920870951
1.0608027228333246
0.9997904774528511
1.0293676503705886
0.8757316909103726
0.995827918808889
0.7047848103705262
0.9030135003235961
0.7617695736800792
0.9338434442611213
0.5782898897972693
0.8176793569483134
0.34886696074010726
0.6454027846920728
0.4163787150687216
0.7010751720537229
0.150797493977286
0.48273481352583997
0.2464855665222833
0.5653579400067539
0.0338146808947157
0.3818100198486469
-0.1435523340761143
0.2155450913255586
-0.30061739404287724
0.05349506596963947
-0.463825495282817
-0.12961474745097898
-0.6464165129326022
-0.34553808000171826
-0.5775487131500106
-0.2564267783062214
-0.790184050855182
-0.5240761538593279
-0.7623393880831687
-0.4874806218618212
-0.9363828375211775
-0.7590035894810941
-0.9452930713062436
-0.7765262811010205
-0.9571012654055572
-0.7995586777237592
-0.9651396199061096
-0.8197044173843369
-0.9805355957968624
-0.970440356745907
-0.9807467377233712
-0.9706105613595999
-0.9870395294233123
-0.9584372275625512
-0.9215592563276345
-0.9928702610456543
-0.7918069065661116
-0.9559178721680983
-0.9308947394095421
-0.987899762363271
-0.8260092205715638
-0.9688498330400046
-0.819458356728114
-0.9661486899521179
-0.7763754877585366
-0.9482824153529275
-0.707598535233848
-0.9131586263748289
-0.9846277922176689
-0.9878168561124905
-0.8858030338814878
-0.9274115532102328
-0.672014583940677
-0.7448472421836622
-0.37466162229106675
-0.4682095581254689
-0.03220702232657009
-0.1346705738820318
0.3104131002643562
0.21174038156551808
0.6109786487706075
0.5290561040758429
0.8372794962765007
0.7814371171371383
0.966782440462491
0.9406474968897431
0.9849361345987153
0.990779504636474
0.8945177700072104
0.9318514479349763
0.710433683285635
0.7734058978521324
0.45451569625381966
0.44108614807652374
-0.8664059154255104
0.5352765245243616
0.15318198549838508
0.24576361185097256
0.6148555086393228
-0.1578939538290651
0.3366610164274124
0.6700000574940224
0.3994180528981478
0.6911336503401975
0.4153993797972616
0.8821775770557057
0.6780547196974739
0.8681490613121536
0.6569612649841791
0.9736032685981517
0.8504259075815606
0.9645625719756501
0.3771559135063405
0.8300123763509004
0.9941769330791704
0.9529346263961767
0.995402574042109
0.9389755895864442
0.9530026869116806
0.9943847623572601
0.8020901937916988
0.9655267093886941
0.9912928768371266
0.40214458576510204
0.8525606754271172
0.9756733888199234
0.9059443533048019
0.9865300364716418
0.8700318010108654
0.723166551754313
0.8871427466237645
0.9791673671052364
-0.5078775935829319
0.4653102539031231
0.8637449111191782
0.9917713550930772
0.9659801949892489
0.9961696862238666
0.9409875437619054
0.9718293172274385
0.9896522975906961
0.9049232991686518
0.9921065466992421
0.8995948196344735
0.968119628421055
0.7152231239687942
0.947812078513103
0.9962027167423683
0.9762553876491696
0.9874662505922558
-0.003285842895443109
0.9037326989711002
0.9914819408061176
0.7727341917623839
0.9375871980511142
0.8157708956993385
0.5757805413864814
0.9594911346421517
0.9960392421673315
0.993704646603178
0.9453060502246786
0.917941639095528
0.6191927437910566
0.7930607207861318
0.7444964979387309
0.7096101623028298
-0.399364366224617
0.5585395131174321
0.4969023812719474
0.8958392437074638
-0.503913645312538
0.6725658865402053
0.2695860342585463
0.7095780290861896
0.8755492660656821
0.6785885885286296
0.9743555293163144
0.856241028611745
0.9671719585500936
0.9858580911524368
-0.8588216736712813
0.8414947383414724
0.9883682613989587
0.9667078731104988
0.9836882844326071
0.8812501900037006
0.6522603569543136
0.973170902553876
0.8517819260701924
0.631079364019049
-0.9914515335830325
0.5931687045776697
0.2896374876679862
0.8629077975943961
0.2870145171300479
-0.05476407067997522
0.041049719290333776
-0.27282800334632124
-0.4768487836612526
-0.7202705476817045
-0.6473905140137423
-0.8436651713857479
-0.9274553988547858
-0.993853926782917
-0.9918212010535759
-0.9193498474609949
-0.8298874256998597
-0.6376468482185675
-0.6930943866519766
-0.9723456558635581
-0.460657486918838
-0.24794048845244923
0.03598967584993509
-0.012300000084840033
-0.2938738843307507
0.2311285252620429
-0.05821704286914614
0.17409035421079744
-0.1009915624490292
0.3905115109052859
0.13400677137386385
0.35764046323621396
0.10069903031816801
0.5610764126400114
0.3288653142472006
0.5422424882521861
0.306650420942698
0.7330962517312554
0.5352454082450524
0.7345627780643185
0.8820688909368471
0.8852095058297378
0.7393489031615871
0.9757193279597157
0.8949935827766968
0.9829580928367858
0.9124117084342162
0.9908974107542401
0.9842064404230706
0.9728277742152
0.9951563806900265
0.963843512296795
0.9961672475320866
0.9654676490840758
0.996550511680962
0.9016327390068956
0.9781365590728592
0.8160763338693442
0.9289325189394159
0.6939416082884776
0.8422614834121547
0.7081826657252205
0.8553031751662669
0.7123156438621743
0.8583908570718741
0.5204957968058276
0.7048944536749563
0.5004631042216265
0.687330798866781
0.2877378124078363
0.477908336978144
0.6684543284834532
0.4675866593934063
0.6593562811429347
0.2627938176665244
0.4743938900346556
0.6529007106952532
0.283126518025366
0.49363156242224604
0.06462611555535512
0.09764025494353086
0.3179134358421523
0.8928433580563163
0.15397742880711449
0.3748759790898976
0.5297123668532734
0.57904266133411
0.2427982994423028
0.4579414786636277
0.753785634071921
0.6513907294471522
0.8876054053660841
0.8111962708767633
0.9712569289919838
0.9265821993650464
0.9973391718051313
0.9886460474106553
0.961795751157317
0.9909696998220761
0.8635980135865917
0.9306933829640506
0.7064702205804303
0.8084810502560116
0.4983263787504421
0.6298422238001375
0.25170132093916353
0.40483342631515035
-0.017022360541192567
0.14742794647112262
-0.28853918583573984
-0.12460434175477335
-0.5417744697432373
-0.3912605300279839
-0.7556482944984562
-0.6310633670376294
0.5258783603496638
0.12886878091773118
0.9635886358859889
-0.9098120105454163
-0.8233067647746082
-0.5133852402533935
-0.7313241579890367
0.5835374418561908
-0.39464904129085204
-0.6323692072075437
-0.9886579823976073
0.9447240359976098
0.8260036789999544
-0.25597121678594326
-0.5100988448271931
0.9770635000130752
-0.08210457464694976
-0.3488660136554813
-0.7269546085376343
-0.593190825190328
-0.8897414611464249
-0.794158943182756
0.27641930586716723
-0.9810935088017816
-0.9325824919810625
-0.7041255394015321
0.3210439867141843
0.31430790547025456
-0.31263043701357207
-0.8396269377549223
-0.9582663826159307
-0.3639279983284654
-0.670423402542095
-0.01951431823025423
0.5390997833334609
-0.8598096279546412
-0.9900665903849227
-0.8678974118677139
-0.984007578598905
-0.8919579815402222
-0.9629892173684277
-0.9890522160074985
-0.806086818177823
-0.9494476171359796
-0.53406108606685
-0.776859442594286
-0.1827063290495793
-0.49283318938974163
0.19890147470344824
-0.13477361814618746
0.5538418115638702
0.245633565712
0.8280014211551379
0.5943270601636167
0.9750811780387358
0.8544531778578206
0.9669928210369546
0.9822248172208414
0.8014068449286641
0.954414983376291
0.5021691332820212
0.7713343034628493
0.11840750327609313
0.45928760335997554
-0.284814749346149
0.07139522437967696
0.7546694098718174
0.4395918053288616
-0.3260720462678522
0.04855479602879269
0.4563370630599239
0.0612780965107815
-0.3509478644502239
-0.3494287857796694
0.09933403760591251
-0.32164126969855444
-0.7039027171742778
-0.6797787054156266
-0.9284373760932396
-0.916745757531126
-0.6578176176273263
-0.9061577612948447
-0.9867160468422624
-0.9878388534162088
-0.8713099444444923
-0.8885472999195246
-0.8973266332585402
-0.9883485825175143
-0.6263074583382863
-0.9016457516539542
-0.988609464589482
-0.909069417975608
-0.6461451606473437
-0.6558946359428213
-0.9089916189070539
-0.6514646251423324
-0.26954157437467174
-0.26459252484358586
0.1710438447415057
0.17600375985490363
0.5789947209199778
0.5814511617942998
0.8699346848534846
0.8686312086233203
0.9843891448838971
0.9823777974857403
0.9188309756412326
0.9372637275221957
0.783443258713008
0.6699018830150671
-0.6304131990976537
0.30806837346271726
0.9923738603754052
0.9074742300043491
0.9670803378643715
0.8329533753338477
0.9957806733927546
0.9313005224078658
0.9789300063935069
0.9438482183268756
0.7048576269567304
0.7133763157182937
0.9863774689156133
0.9240062471528435
0.32586914976381853
0.8942443180129019
0.9915407773699576
0.9459253725392123
0.9794733907001217
0.8998128613136546
0.8235624863337886
0.49294822450169434
0.9841042970204866
0.8052177338993413
0.6394200108083788
0.9085228569294623
0.3789548269168241
0.7428048038637868
0.47774113926326
0.8135403071595341
0.13081621474443994
-0.3072934506523542
0.5497991835786565
0.19948767936679454
0.6070514566071156
-0.18316290327668303
0.9803269462707961
0.2615851554902046
-0.12152587187618828
0.32132224871226756
-0.4823454847534016
-0.05760277548752067
-0.42382781981071815
0.6976823857613734
0.004973553557590383
-0.7252370682748186
-0.8075319513643126
-0.7015377316341654
-0.8732066575047231
-0.3676200660886821
-0.6845211204323897
0.5624555272051266
0.6165646012535959
0.7568903970301406
0.582304062883866
0.9639495101496514
0.0799809700114312
-0.8108244500872253
-0.8319301897426656
0.7525190446529739
-0.31335760821635184
-0.9033014557308491
0.0708948191887772
-0.9799572899226283
-0.5592411770498463
0.5287138964590111
0.9741260378274516
0.14823587767389274
-0.9229045711636676
-0.7492509202301972
-0.9066155230854656
-0.9753700881083464
-0.9885499703128325
-0.9932664040438298
-0.9854638235789912
0.8004365107718227
-0.5124398246274326
0.06426903651990336
-0.64557892635672
-0.8853152682942482
0.7652403921557869
-0.9233566710424334
-0.8953876562212777
0.9976803553518087
-0.3671977852883574
-0.8017617951973004
0.9055793425790666
-0.6144631634515411
-0.9850507063099349
-0.9012557563303285
-0.8785516726657666
-0.982226960436816
-0.8288953044879386
0.8964753678188456
-0.9612634563728367
-0.8396529666225991
-0.7554906700121425
-0.5228996895489282
-0.3826644106174022
-0.7493783424952206
0.19095180569834827
0.12048294130137568
0.3808210755303778
0.5634105401534563
0.7574227433878032
0.717435036266997
0.8725794259680074
0.9521835798911097
1.003281129586505
-0.9724185644366209
-0.7548191279854303
0.9883440311583238
1.0072640428433906
0.9143627601722176
0.5897036030651663
-0.6125767525026073
-0.4693716138467897
-0.7694007099147866
-0.7246292889137049
-0.9712751242321762
-0.8599828770502668
-0.07655743445182557
0.12011470600490112
0.987523613071107
-0.9788604043134342
0.5057110535184048
0.20849465288120697
-0.0592720222471224
-0.3658143713072844
-0.3199946070424674
-0.5954239067941665
-0.7829361717112064
-0.6319454113315083
0.9719308347674973
-1.0025037163930386
-0.9521399106002878
1.0048445630054874
0.9469335967460558
0.9996323683895125
0.9894828732534788
0.8333290251777327
0.9152771469772285
0.6740067338928118
0.7888342699489572
0.4801117408329879
0.619869636058132
0.26417909616729546
0.42004435172662336
0.03878298477818121
0.20138646830888118
-0.1848515810336785
-0.02380469479687447
-0.3964743606113589
-0.24433694408334575
-0.5868565885647684
-0.45033754418552374
-0.748156694320898
-0.6324977728463922
-0.8746355665729443
-0.7835260252844376
-0.9628174333180155
-0.8985952562707281
-1.01167933916268
-0.9754051619467882
-1.0214706354150198
-1.012804980435514
-0.993505581966607
-1.0102110141192229
-0.9305303176533571
-0.9687390098329342
-0.8356644677353464
-0.8913267015592986
-0.7121618238608053
-0.78279148112141
-0.6493400948054111
-0.5661048886808732
-0.4994928870447515
-0.40676670025713935
-0.3415907568915764
-0.5982664324930953
-0.4502018326171504
-0.18143630778436332
-0.2955688442831312
-0.5662326572732594
-0.42001480155448334
-0.13837256543214002
-0.26586427911962396
-0.3984851825748967
-0.2398220989046569
-0.10490132079974554
-0.07422175865879557
-0.20209518533852808
0.05844349523797021
-0.3097794378507333
-0.13952074174751877
-0.39552030504494834
-0.23243751965485368
-0.47082693679336396
-0.3153017637890509
-0.5494984054952938
-0.06879603532331478
-0.40088876562415215
-0.6377424856362446
-0.49534041943875257
-0.5941771545853409
-0.44760092939049834
-0.6947271084660498
-0.3432215987637156
-0.5604625531298522