# vtk DataFile Version 2.0
untitled, Created by Gmsh 4.10.0 
ASCII
DATASET UNSTRUCTURED_GRID
POINTS 117 double
0 0 0
1 0 0
1 1 0
0 1 0
0.1111111111111112 0 0
0.2222222222222226 0 0
0.333333333333334 0 0
0.4444444444444453 0 0
0.555555555555556 0 0
0.6666666666666667 0 0
0.7777777777777775 0 0
0.8888888888888881 0 0
1 0.1111111111111112 0
1 0.2222222222222226 0
1 0.333333333333334 0
1 0.4444444444444453 0
1 0.555555555555556 0
1 0.6666666666666667 0
1 0.7777777777777775 0
1 0.8888888888888881 0
0.8888888888888888 1 0
0.7777777777777775 1 0
0.6666666666666661 1 0
0.5555555555555547 1 0
0.444444444444444 1 0
0.3333333333333333 1 0
0.2222222222222225 1 0
0.1111111111111119 1 0
0 0.8888888888888888 0
0 0.7777777777777775 0
0 0.6666666666666661 0
0 0.5555555555555547 0
0 0.444444444444444 0
0 0.3333333333333333 0
0 0.2222222222222225 0
0 0.1111111111111119 0
0.5392406934416109 0.0950537972583762 0
0.506865652935242 0.8992342065091452 0
0.1093393651321767 0.4636697779887543 0
0.899355638252218 0.4759205092297891 0
0.09484450474343431 0.2671925530230914 0
0.7191948765931624 0.09046554492471959 0
0.9070449914188585 0.6875834612662862 0
0.321910221455649 0.8908798767034576 0
0.8972418954802004 0.262612638825181 0
0.1003308839787351 0.6740826488493566 0
0.7032523388299509 0.9004134397840011 0
0.3176756176248465 0.0968509338284318 0
0.4291924144295907 0.09692567169494765 0
0.4139524993597101 0.1979563069506832 0
0.5272709371479952 0.1929194685525988 0
0.5246164695129168 0.2902880787738783 0
0.3970994464113389 0.3191878814833967 0
0.4475110823795012 0.3920321577311688 0
0.5284770415261333 0.3844528170150454 0
0.5241025919961437 0.5027250149208061 0
0.4065734453834323 0.4594296651228141 0
0.4392768834505734 0.60993132284754 0
0.5995332279408505 0.5989879476661296 0
0.3278261589232331 0.5552089953836616 0
0.3922643045936127 0.6796848949471062 0
0.2842223907507184 0.4782064586351903 0
0.3117638180953495 0.6765051695006804 0
0.3142958582930603 0.7820862153749529 0
0.4400813108478063 0.7688011243400763 0
0.2066193181619681 0.7843688580581852 0
0.2132025135956541 0.8921922167547618 0
0.430712780716799 0.8939667743461176 0
0.5454670171972837 0.8297080211400731 0
0.5250364409151295 0.6747973023752771 0
0.6458993581492417 0.6541038084985229 0
0.6911905169409276 0.5462762009776894 0
0.7152030548122947 0.6350271913040868 0
0.7235987922693781 0.7220816857986333 0
0.7945331187444398 0.5080593475115053 0
0.772003892675474 0.3898242935472208 0
0.7057938859614235 0.3424086072527022 0
0.8076258243272254 0.6086216216370159 0
0.6205452615518755 0.8783801201051633 0
0.2997672635922877 0.1958909307484256 0
0.2718313525972947 0.2947051467457064 0
0.1939937444723466 0.1915517853080562 0
0.2090403128613348 0.09744530962904924 0
0.628306687377656 0.2771662888628117 0
0.79841664490312 0.9005116763500274 0
0.1025008767714673 0.5662618047953514 0
0.2066376289108443 0.569982064285889 0
0.8799109783703102 0.1771298595085707 0
0.8138467257866333 0.2112583437005523 0
0.1330479821818931 0.3678437680032112 0
0.6437416116257627 0.09191852995429234 0
0.3246249378542168 0.416609570212063 0
0.6332271480475966 0.1846489991440508 0
0.2359693486167759 0.387456895020215 0
0.8953893911169052 0.3654677911622276 0
0.8363280591163007 0.1038778087886761 0
0.9049170102098922 0.7913847506534656 0
0.8105788354960167 0.8022833628656049 0
0.09657011272509392 0.1986524923274385 0
0.2068526420584533 0.6751745459725657 0
0.6559785486327023 0.4541161125321664 0
0.6562237363486559 0.8123155668287512 0
0.8036860270744046 0.2783165048926589 0
0.102825901456512 0.7823185833653145 0
0.1688198410925254 0.2809122153228548 0
0.8129668988849197 0.7054771000585156 0
0.2124742941761163 0.4753606006735688 0
0.1063885418912334 0.8911084159449078 0
0.6319804837774354 0.3650328387962114 0
0.8981137603374454 0.8953775928728331 0
0.1038745843733537 0.1021138807577931 0
0.9010714269459472 0.06757422727301832 0
0.6195776096594323 0.7385901199602198 0
0.9035653545557791 0.582168111254322 0
0.718925078496976 0.2743114446451297 0
0.7207179994803862 0.8085414459409126 0
0.7454227947268827 0.1703964939695944 0

CELLS 138 606
1 0
1 1
1 2
1 3
2 0 4
2 4 5
2 5 6
2 6 7
2 7 8
2 8 9
2 9 10
2 10 11
2 11 1
2 1 12
2 12 13
2 13 14
2 14 15
2 15 16
2 16 17
2 17 18
2 18 19
2 19 2
2 2 20
2 20 21
2 21 22
2 22 23
2 23 24
2 24 25
2 25 26
2 26 27
2 27 3
2 3 28
2 28 29
2 29 30
2 30 31
2 31 32
2 32 33
2 33 34
2 34 35
2 35 0
4 98 81 104 40
4 63 43 66 65
4 68 37 67 64
4 59 62 99 86
4 24 25 43 67
4 57 69 64 60
4 74 75 94 39
4 26 27 107 66
4 103 45 99 65
4 113 42 105 77
4 87 88 116 95
4 43 63 64 67
4 68 78 23 37
4 23 78 46 22
4 58 71 72 70
4 71 74 77 72
4 71 100 75 74
4 82 47 79 81
4 49 52 80 79
4 49 79 47 48
4 7 48 47 6
4 84 21 22 46
4 82 5 6 47
4 12 13 44 87
4 48 36 50 49
4 69 57 55 58
4 55 57 59 56
4 67 37 23 24
4 45 30 31 85
4 52 49 50 51
4 52 51 54 53
4 52 53 56 91
4 48 7 8 36
4 54 55 56 53
4 66 43 25 26
4 32 38 85 31
4 38 32 33 89
4 59 61 91 56
4 57 60 62 59
4 10 41 90 9
4 64 63 62 60
4 36 8 9 90
4 104 89 33 40
4 36 90 92 50
4 51 50 92 83
4 52 91 93 80
4 13 14 94 44
4 39 94 14 15
4 27 3 28 107
4 63 65 99 62
4 71 58 55 100
4 17 18 96 42
4 33 34 98 40
4 74 39 113 77
4 79 80 104 81
4 93 106 38 89
4 44 94 75 102
4 64 69 112 68
4 35 0 4 110
4 11 1 12 111
4 19 2 20 109
4 15 16 113 39
4 58 70 112 69
4 114 76 108 83
4 86 99 45 85
4 97 84 46 115
4 10 95 116 41
4 87 44 102 88
4 59 86 106 61
4 29 103 107 28
4 55 54 108 100
4 91 61 106 93
4 30 45 103 29
4 75 76 114 102
4 89 104 80 93
4 73 72 77 105
4 85 38 106 86
4 96 97 105 42
4 34 35 110 98
4 10 11 111 95
4 18 19 109 96
4 51 83 108 54
4 78 68 112 101
4 75 100 108 76
4 5 82 110 4
4 21 84 109 20
4 72 73 112 70
4 42 113 16 17
4 105 97 115 73
4 90 41 116 92
4 12 87 95 111
4 97 96 109 84
4 81 98 110 82
4 65 66 107 103
4 115 101 112 73
4 78 101 115 46
4 83 92 116 114
4 102 114 116 88

CELL_TYPES 138
1
1
1
1
3
3
3
3
3
3
3
3
3
3
3
3
3
3
3
3
3
3
3
3
3
3
3
3
3
3
3
3
3
3
3
3
3
3
3
3
9
9
9
9
9
9
9
9
9
9
9
9
9
9
9
9
9
9
9
9
9
9
9
9
9
9
9
9
9
9
9
9
9
9
9
9
9
9
9
9
9
9
9
9
9
9
9
9
9
9
9
9
9
9
9
9
9
9
9
9
9
9
9
9
9
9
9
9
9
9
9
9
9
9
9
9
9
9
9
9
9
9
9
9
9
9
9
9
9
9
9
9
9
9
9
9
9
9

POINT_DATA 117 
SCALARS sample_scalars float 1 
LOOKUP_TABLE my_table 
0.3894183423086506
0.965657776549278
-0.9568933495204898
0.965657776549278
0.823697466360304
0.9776289276064248
0.2927945888019332
-0.847625375088151
-0.5434515016110691
0.9417935004202398
-0.1352996294202851
-0.651515573967196
-0.9960743886205189
0.9813964429315384
-0.998708241058524
0.9432745040322299
-0.5614801587938698
-0.283004522437588
0.9881870679114927
-0.34076384373939833
-0.3407638437393649
0.9881870679114927
-0.28300452243756075
-0.5614801587939051
0.9432745040322441
-0.9987082410585231
0.9813964429315384
-0.9960743886205204
-0.6515155739671837
-0.1352996294202851
0.9417935004202356
-0.5434515016110855
-0.8476253750881415
0.29279458880194
0.9776289276064251
0.8236974663603064
0.5724058530961388
0.3233348398329873
-0.26106705517014295
-0.3632008388924575
0.019199464947242957
-0.36276214670500906
0.8543603171162336
0.7204562880821147
-0.41561077449388495
-0.020494311190550528
0.992126615253546
-0.5515174767445384
-0.8081827576301994
0.22448154569330495
0.7388429594976444
-0.683158785522395
0.7773073543046323
-0.8605462311405924
-0.38491230797228926
0.8196631357061543
-1.1535395678018958
0.2322310525892508
1.1834248406803904
-0.9199652395189664
-0.03183498259165459
0.19075485911792656
0.8212335886582144
-0.7068301423120498
1.093908418575148
0.8139244322703117
-0.7781109060321094
-0.9303475624023396
-0.4565703749519994
1.185111451921053
-0.5433084008673776
1.0459342488136973
-0.8438648137826233
0.6966320536880928
-0.7667512592298246
-0.6482781178358213
0.2920447504788562
0.9805302069810152
-0.9372989993566239
-0.9708042888917672
-0.41829305762055924
-0.25267836035244484
0.5398874970556123
-0.24707766350786056
-0.9738327644031186
0.8344081688393156
0.020290122255035948
-0.04847538470000618
0.4677580123809624
-0.9175556221298115
0.567593150921348
0.48394301122916267
-0.6799796293573499
0.43929229836877554
0.5955626434906456
0.4737374969588277
-1.032561549057701
0.9158731957318728
0.6262108384818815
-0.6628062386952427
-0.9033689365374779
-0.04486133236684613
-0.502279162093053
-0.6105135722279039
-0.8115275327693625
-0.9399499168846362
0.9201899101981315
0.82372791896695
0.8735024316301501
1.1529599030832454
0.9897770234988976
0.5989821138992021
-1.0922491383243882
-0.20153641901496924
0.9200777048060687
-0.9360839298223242
-0.10794713534931565
