# vtk DataFile Version 2.0
untitled, Created by Gmsh 4.9.5 
ASCII
DATASET UNSTRUCTURED_GRID
POINTS 5988 double
0 0 0
1 0 0
1 1 0
0 1 0
0.01408450704225353 0 0
0.02816901408450706 0 0
0.0422535211267606 0 0
0.05633802816901413 0 0
0.07042253521126766 0 0
0.08450704225352119 0 0
0.09859154929577472 0 0
0.1126760563380283 0 0
0.1267605633802818 0 0
0.1408450704225354 0 0
0.1549295774647889 0 0
0.1690140845070424 0 0
0.183098591549296 0 0
0.1971830985915496 0 0
0.2112676056338031 0 0
0.2253521126760567 0 0
0.2394366197183102 0 0
0.2535211267605638 0 0
0.2676056338028173 0 0
0.2816901408450709 0 0
0.2957746478873244 0 0
0.309859154929578 0 0
0.3239436619718316 0 0
0.3380281690140851 0 0
0.3521126760563387 0 0
0.3661971830985922 0 0
0.3802816901408458 0 0
0.3943661971830993 0 0
0.4084507042253529 0 0
0.4225352112676064 0 0
0.43661971830986 0 0
0.4507042253521135 0 0
0.464788732394367 0 0
0.4788732394366205 0 0
0.492957746478874 0 0
0.5070422535211274 0 0
0.5211267605633808 0 0
0.5352112676056343 0 0
0.5492957746478878 0 0
0.5633802816901413 0 0
0.5774647887323947 0 0
0.5915492957746482 0 0
0.6056338028169017 0 0
0.6197183098591551 0 0
0.6338028169014085 0 0
0.647887323943662 0 0
0.6619718309859156 0 0
0.676056338028169 0 0
0.6901408450704224 0 0
0.7042253521126759 0 0
0.7183098591549294 0 0
0.7323943661971828 0 0
0.7464788732394363 0 0
0.7605633802816898 0 0
0.7746478873239433 0 0
0.7887323943661967 0 0
0.8028169014084501 0 0
0.8169014084507036 0 0
0.8309859154929571 0 0
0.8450704225352106 0 0
0.859154929577464 0 0
0.8732394366197175 0 0
0.887323943661971 0 0
0.9014084507042245 0 0
0.915492957746478 0 0
0.9295774647887316 0 0
0.9436619718309854 0 0
0.957746478873239 0 0
0.9718309859154927 0 0
0.9859154929577464 0 0
1 0.01408450704225353 0
1 0.02816901408450706 0
1 0.0422535211267606 0
1 0.05633802816901413 0
1 0.07042253521126766 0
1 0.08450704225352119 0
1 0.09859154929577472 0
1 0.1126760563380283 0
1 0.1267605633802818 0
1 0.1408450704225354 0
1 0.1549295774647889 0
1 0.1690140845070424 0
1 0.183098591549296 0
1 0.1971830985915496 0
1 0.2112676056338031 0
1 0.2253521126760567 0
1 0.2394366197183102 0
1 0.2535211267605638 0
1 0.2676056338028173 0
1 0.2816901408450709 0
1 0.2957746478873244 0
1 0.309859154929578 0
1 0.3239436619718316 0
1 0.3380281690140851 0
1 0.3521126760563387 0
1 0.3661971830985922 0
1 0.3802816901408458 0
1 0.3943661971830993 0
1 0.4084507042253529 0
1 0.4225352112676064 0
1 0.43661971830986 0
1 0.4507042253521135 0
1 0.464788732394367 0
1 0.4788732394366205 0
1 0.492957746478874 0
1 0.5070422535211274 0
1 0.5211267605633808 0
1 0.5352112676056343 0
1 0.5492957746478878 0
1 0.5633802816901413 0
1 0.5774647887323947 0
1 0.5915492957746482 0
1 0.6056338028169017 0
1 0.6197183098591551 0
1 0.6338028169014085 0
1 0.647887323943662 0
1 0.6619718309859156 0
1 0.676056338028169 0
1 0.6901408450704224 0
1 0.7042253521126759 0
1 0.7183098591549294 0
1 0.7323943661971828 0
1 0.7464788732394363 0
1 0.7605633802816898 0
1 0.7746478873239433 0
1 0.7887323943661967 0
1 0.8028169014084501 0
1 0.8169014084507036 0
1 0.8309859154929571 0
1 0.8450704225352106 0
1 0.859154929577464 0
1 0.8732394366197175 0
1 0.887323943661971 0
1 0.9014084507042245 0
1 0.915492957746478 0
1 0.9295774647887316 0
1 0.9436619718309854 0
1 0.957746478873239 0
1 0.9718309859154927 0
1 0.9859154929577464 0
0.9859154929577465 1 0
0.9718309859154929 1 0
0.9577464788732394 1 0
0.9436619718309859 1 0
0.9295774647887324 1 0
0.9154929577464788 1 0
0.9014084507042253 1 0
0.8873239436619718 1 0
0.8732394366197183 1 0
0.8591549295774646 1 0
0.8450704225352111 1 0
0.8309859154929575 1 0
0.816901408450704 1 0
0.8028169014084504 1 0
0.7887323943661969 1 0
0.7746478873239433 1 0
0.7605633802816898 1 0
0.7464788732394363 1 0
0.7323943661971827 1 0
0.7183098591549291 1 0
0.7042253521126756 1 0
0.6901408450704221 1 0
0.6760563380281684 1 0
0.6619718309859148 1 0
0.6478873239436613 1 0
0.6338028169014078 1 0
0.6197183098591542 1 0
0.6056338028169006 1 0
0.5915492957746471 1 0
0.5774647887323936 1 0
0.5633802816901401 1 0
0.5492957746478865 1 0
0.5352112676056331 1 0
0.5211267605633796 1 0
0.5070422535211261 1 0
0.4929577464788726 1 0
0.4788732394366192 1 0
0.4647887323943657 1 0
0.4507042253521122 1 0
0.4366197183098587 1 0
0.4225352112676053 1 0
0.4084507042253518 1 0
0.3943661971830983 1 0
0.3802816901408449 1 0
0.3661971830985915 1 0
0.352112676056338 1 0
0.3380281690140844 1 0
0.323943661971831 1 0
0.3098591549295776 1 0
0.2957746478873241 1 0
0.2816901408450706 1 0
0.2676056338028172 1 0
0.2535211267605637 1 0
0.2394366197183102 1 0
0.2253521126760567 1 0
0.2112676056338033 1 0
0.1971830985915499 1 0
0.1830985915492964 1 0
0.1690140845070429 1 0
0.1549295774647894 1 0
0.140845070422536 1 0
0.1267605633802825 1 0
0.112676056338029 1 0
0.09859154929577552 1 0
0.08450704225352201 1 0
0.0704225352112684 1 0
0.05633802816901456 1 0
0.04225352112676095 1 0
0.02816901408450734 1 0
0.01408450704225361 1 0
0 0.9859154929577465 0
0 0.9718309859154929 0
0 0.9577464788732394 0
0 0.9436619718309859 0
0 0.9295774647887324 0
0 0.9154929577464788 0
0 0.9014084507042253 0
0 0.8873239436619718 0
0 0.8732394366197183 0
0 0.8591549295774646 0
0 0.8450704225352111 0
0 0.8309859154929575 0
0 0.816901408450704 0
0 0.8028169014084504 0
0 0.7887323943661969 0
0 0.7746478873239433 0
0 0.7605633802816898 0
0 0.7464788732394363 0
0 0.7323943661971827 0
0 0.7183098591549291 0
0 0.7042253521126756 0
0 0.6901408450704221 0
0 0.6760563380281684 0
0 0.6619718309859148 0
0 0.6478873239436613 0
0 0.6338028169014078 0
0 0.6197183098591542 0
0 0.6056338028169006 0
0 0.5915492957746471 0
0 0.5774647887323936 0
0 0.5633802816901401 0
0 0.5492957746478865 0
0 0.5352112676056331 0
0 0.5211267605633796 0
0 0.5070422535211261 0
0 0.4929577464788726 0
0 0.4788732394366192 0
0 0.4647887323943657 0
0 0.4507042253521122 0
0 0.4366197183098587 0
0 0.4225352112676053 0
0 0.4084507042253518 0
0 0.3943661971830983 0
0 0.3802816901408449 0
0 0.3661971830985915 0
0 0.352112676056338 0
0 0.3380281690140844 0
0 0.323943661971831 0
0 0.3098591549295776 0
0 0.2957746478873241 0
0 0.2816901408450706 0
0 0.2676056338028172 0
0 0.2535211267605637 0
0 0.2394366197183102 0
0 0.2253521126760567 0
0 0.2112676056338033 0
0 0.1971830985915499 0
0 0.1830985915492964 0
0 0.1690140845070429 0
0 0.1549295774647894 0
0 0.140845070422536 0
0 0.1267605633802825 0
0 0.112676056338029 0
0 0.09859154929577552 0
0 0.08450704225352201 0
0 0.0704225352112684 0
0 0.05633802816901456 0
0 0.04225352112676095 0
0 0.02816901408450734 0
0 0.01408450704225361 0
0.4999999999999956 0.01219754089835545 0
0.4999999999999993 0.9878024591016277 0
0.9903814249123937 0.5003167126945817 0
0.009598558452927786 0.5002820428663214 0
0.9873520588037447 0.5999914744403221 0
0.401408450704225 0.9878024591016277 0
0.01263791277322679 0.4000840866095589 0
0.5985915492957723 0.01219754089836189 0
0.0126988621735652 0.6000796721601948 0
0.5985915492957739 0.9878024591016277 0
0.9873620872267704 0.4000840866095774 0
0.4014084507042247 0.01219754089836467 0
0.0129933593203781 0.6983396426078298 0
0.6971729153710534 0.987843807076334 0
0.3028169014084504 0.01219754089836689 0
0.6971830985915481 0.01219754089837116 0
0.9872035027999929 0.3170583903742211 0
0.9858867287995181 0.6832136504992401 0
0.316929921468076 0.9878685769904695 0
0.0125402321508663 0.3170737812307063 0
0.9873484393659375 0.7661779983118308 0
0.2324045494176734 0.9878438069781607 0
0.0111880385389177 0.2331314965021884 0
0.9882440492315071 0.2314670393750915 0
0.7816901408450685 0.01219754089837127 0
0.0141697932257307 0.7812094682301438 0
0.78169014084507 0.9878024591016277 0
0.2183098591549277 0.01219754089836644 0
0.9873672791327956 0.8373985620146474 0
0.1619718309859163 0.9878189887112721 0
0.01198264006356586 0.16234405015039 0
0.987643841886517 0.1622095993077676 0
0.8521126760563311 0.01219754089836983 0
0.8521126760563379 0.9878024591016277 0
0.01344513065554087 0.8530214122625774 0
0.1478873239436607 0.01219754089836916 0
0.9878024591016277 0.8943661971830977 0
0.1056338028169023 0.9878024591016277 0
0.01219754089837238 0.1056338028169023 0
0.9878024591016277 0.1056338028169015 0
0.9084507042253461 0.01219754089836939 0
0.9084608874458397 0.9878438069781628 0
0.01171990945071943 0.9086593000134757 0
0.09154929577464826 0.01219754089837222 0
0.6549438339734752 0.9878438166565651 0
0.011486852906745 0.2748678487423311 0
0.01339248107860919 0.6566680503291284 0
0.5563380281690132 0.9878024591016277 0
0.9885131470932589 0.2748678487423381 0
0.4577464788732403 0.01219754089837233 0
0.9866163191404114 0.4416253594943634 0
0.01048223714132712 0.5420892422472192 0
0.2746764003413147 0.9878685769904674 0
0.3591549295774556 0.01219754089836622 0
0.9887737641897738 0.3589429561725474 0
0.5422535211267548 0.01219754089835989 0
0.7394468029388002 0.98784380707633 0
0.7394366197183062 0.01219754089837161 0
0.9894963683949933 0.7256127865659976 0
0.2605633802816893 0.01219754089836317 0
0.9866132362057489 0.5584313129818008 0
0.4436619718309854 0.9878024591016277 0
0.01338368085957953 0.4416253594943485 0
0.6549295774647867 0.01219754089837111 0
0.01259778011765922 0.739123913703981 0
0.01055314318852835 0.3595749587549361 0
0.9892226181133573 0.6406525843860327 0
0.3591834425948374 0.9878685769904721 0
0.9874315805796371 0.06422130539042392 0
0.9874430085521805 0.9358526824274368 0
0.06338028169014143 0.9878024591016276 0
0.01256841942037579 0.06422130539042137 0
0.9507042253521125 0.9878024591016277 0
0.01255180835718384 0.9509423592289157 0
0.950704225352112 0.01219754089837249 0
0.04929577464788765 0.01219754089836694 0
0.8098693381500679 0.9878438069781635 0
0.01265496749149253 0.5695590169858918 0
0.8802816901408447 0.9878024591016277 0
0.01190325269458903 0.8098591549295775 0
0.8239436619718273 0.01219754089837211 0
0.9872957163119197 0.204100014229386 0
0.4295774647887267 0.01219754089836711 0
0.0129098437357888 0.879532125476028 0
0.5704225352112648 0.01219754089836267 0
[...]
POINT_DATA 5988 
SCALARS sample_scalars float 1 
LOOKUP_TABLE my_table 
0.3894183423086506
0.965657776549278
-0.9568933495204898
0.965657776549278
0.44244369273527057
0.4974102738049478
0.5537555298643414
0.6108168441483225
0.6678254985601947
0.7239027153839966
0.7780584217267671
0.8291934326683196
0.8761057875882451
0.9175019886547121
0.952013872789678
0.9782217896681439
0.9946846492208163
0.9999772336078976
0.992734932469005
0.9717057498674632
0.9358090428841235
0.884199985318047
0.816338210655945
0.7320584881661861
0.6316406443062181
0.5158752872597044
0.3861212638146033
0.24435022353479938
0.09317324349907495
-0.06415575575100448
-0.2237650239105694
-0.3812232517627872
-0.5316351186452211
-0.6697768543301543
-0.7902727582449438
-0.8878113001714918
-0.9573966121235538
-0.9946279480663929
-0.9959961708841427
-0.9591827220528559
-0.8833431012303611
-0.7693539535494462
-0.6200008041580218
-0.44008269389650745
-0.23641085770368242
-0.017681509324479202
0.2057919743576637
0.42249450600937305
0.6202693677327333
0.7870077971511427
0.9114393828499553
0.9839804409585639
0.9975840684245765
0.9485242150306156
0.8370385219735547
0.6677525105948282
0.4498124959127822
0.1966675096578378
-0.07453788794400637
-0.34396801476075095
-0.5904686594501546
-0.7932370079517113
-0.9336751588135894
-0.9972741502683413
-0.9753449950053529
-0.8663972539482355
-0.6769692780960996
-0.42174125530269574
-0.12281436951883039
0.19188440782402674
0.4910166968520847
0.742904183583394
0.9189887453682172
0.9973212439655456
0.8237258910715454
0.5842632908985395
0.2725334343216903
-0.07581632028358803
-0.4184798460590489
-0.7114926732315707
-0.914971324380345
-0.9988685085768896
-0.947913409781625
-0.7649095463565789
-0.4716969776949735
-0.10735300767761087
0.2764144818589656
0.6222785943289396
0.8758559169070973
0.9945900399173037
0.9555060861320887
0.7603890381267571
0.4372023497517625
0.03708333575118922
-0.3730270216521249
-0.7212450653421066
-0.9434522284552669
-0.9956449719549808
-0.8635176580911647
-0.567120107568677
-0.1591592873904337
0.28335863228100755
0.6731021347851793
0.9296507838091012
0.9966641279760897
0.855279233251782
0.5304392610752986
0.08806610738559194
-0.37715770395632103
-0.7614834490862785
-0.9753803828764168
-0.9652360852949167
-0.7281160578639573
-0.3153508607992867
0.17694757345666354
0.6292301195378128
0.927327587043083
0.9919432415367093
0.8011363162381291
0.3991994764498516
-0.11163859879884372
-0.5958749013859808
-0.9202836905911548
-0.9912444308715496
-0.7833173900560287
-0.35005702335797295
0.1875705363518815
0.6735312466456974
0.9617254101651651
0.96087361146842
0.6653399486798716
0.1610866491674843
-0.3970802947944655
-0.8318461701408433
-0.9999468464055522
-0.8409732988857823
-0.40143646269283223
0.17595676855230855
0.696714647349962
0.9796488791753977
0.9211493613496156
0.5355772349396277
-0.04459371689683658
-0.6118327958157298
-0.6118327958157298
-0.04459371689685788
0.5355772349396156
0.9211493613496101
0.9796488791754062
0.6967146473499772
0.17595676855232253
-0.40143646269281275
-0.8409732988857708
-0.9999468464055524
-0.8318461701408512
-0.39708029479447854
0.16108664916747029
0.665339948679861
0.9608736114684161
0.9617254101651651
0.6735312466456974
0.1875705363518815
-0.3500570233579796
-0.7833173900560376
-0.9912444308715515
-0.9202836905911492
-0.5958749013859636
-0.11163859879881546
0.3991994764498777
0.8011363162381462
0.9919432415367139
0.9273275870430698
0.6292301195377852
0.17694757345662507
-0.3153508607993305
-0.7281160578639914
-0.9652360852949287
-0.9753803828764066
-0.7614834490862509
-0.37715770395627823
0.08806610738563794
0.5304392610753348
0.855279233251804
0.9966641279760935
0.929650783809088
0.673102134785153
0.2833586322809735
-0.15915928739046525
-0.5671201075686946
-0.8635176580911754
-0.9956449719549825
-0.9434522284552598
-0.7212450653420968
-0.37302702165211504
0.037083335751203414
0.4372023497517721
0.7603890381267594
0.9555060861320887
0.9945900399173037
0.8758559169071042
0.6222785943289479
0.27641448185897927
-0.10735300767759674
-0.4716969776949641
-0.7649095463565697
-0.9479134097816193
-0.9988685085768905
-0.9149713243803521
-0.7114926732315832
-0.418479846059065
-0.07581632028359157
0.2725334343216783
0.5842632908985295
0.8237258910715454
0.9973212439655456
0.9189887453682186
0.7429041835834012
0.4910166968520924
0.19188440782404592
-0.12281436951881453
-0.42174125530268125
-0.6769692780960892
-0.8663972539482284
-0.9753449950053497
-0.9972741502683422
-0.933675158813592
-0.7932370079517166
-0.5904686594501631
-0.34396801476075595
-0.07453788794400637
0.1966675096578378
0.4498124959127822
0.6677525105948282
0.8370385219735585
0.9485242150306183
0.9975840684245769
0.9839804409585626
0.9114393828499494
0.787007797151136
0.6202693677327243
0.42249450600936017
0.20579197435764632
-0.017681509324496962
-0.23641085770369968
-0.4400826938965258
-0.6200008041580378
-0.7693539535494581
-0.8833431012303702
-0.9591827220528613
-0.9959961708841446
-0.994627948066391
-0.9573966121235485
-0.887811300171484
-0.7902727582449335
-0.6697768543301441
-0.5316351186452097
-0.3812232517627749
-0.22376502391055988
-0.06415575575099561
0.09317324349908336
0.24435022353480626
0.38612126381460987
0.5158752872597071
0.6316406443062201
0.7320584881661879
0.8163382106559455
0.8841999853180474
0.9358090428841235
0.9717057498674632
0.9927349324690048
0.9999772336078976
0.9946846492208167
0.9782217896681445
0.9520138727896789
0.9175019886547137
0.8761057875882472
0.829193432668322
0.77805842172677
0.7239027153839999
0.6678254985601975
0.6108168441483244
0.5537555298643428
0.49741027380494895
0.4424436927352709
-0.935397546901649
-0.21275669065224947
-0.3049563352733963
-0.9448085939251322
0.5024024258888612
0.12514186608302147
-0.5744297197017277
0.28589226964934605
0.31693329420565675
0.47500617039105536
0.06940048037508656
-0.5835468704907916
0.9001835325251952
-0.8207057968535809
0.4698440984253594
0.9137641308013432
-0.5955406247427523
-0.3722546022304601
-0.6059600441896212
0.3307255130458789
0.44729400961415616
0.9645517744993451
0.9193718988589681
0.9602992012742269
-0.43651017450255075
-0.4635722727397777
0.8769781531034698
0.960194858347481
-0.16002792950196842
-0.5850646270225355
0.9857722928827493
-0.5811876675158973
-0.9435954592834317
-0.6913714702840975
-0.931940131914611
0.962549276893308
-0.5675839611019884
-0.8505940562529924
0.8467920459973406
-0.8519585118674445
-0.008959410535703226
-0.029698934487499783
-0.015111542463238644
0.7971390136899877
0.5532025969005397
0.7002545513796913
0.9615582414131671
-0.8286412971547444
0.5389609062027724
-0.974398480894254
0.9855184271472557
-0.5803691623543668
0.5600049491927142
-0.1223967906572554
-0.9155903172282087
-0.5571691812268948
-0.5150607470100877
0.36043364041271936
-0.8408448103179927
0.7872515194389318
-0.8117471583452657
0.9886298077392627
-0.9118042628598853
0.9431526944056783
0.3584479573209755
-0.10850363596091711
0.8669381781303135
-0.9243390043986329
0.03919706191835312
0.8867970561469763
0.051750610533037
0.6933629435286601
0.9656066216307579
0.825565796036974
0.814676521713194
0.631712725741711
0.7875748283180974
-0.16387482993679486
-0.9190165107256945
-0.8462641262641011
-0.9642600010695501
0.4889258886092114
-0.8284152021308172
-0.5913038494276915
-0.15776705882801872
-0.9756487152181818
-0.9142595262737744
0.9978989953747777
0.8731015874268411
0.13875030815500702
0.9978701371124706
0.9874661404471623
0.8918974125625454
0.18996609805458678
0.6845353586086574
0.6846583633152221
-0.9125797734053129
0.6588944021501285
0.6844680907781278
-0.9619486851738343
-0.9777538226719263
-0.9980833986039642
0.9261694782596364
-0.5895748736355276
0.7104564288028777
0.6580941062087273
0.6755733303947858
0.5713688436492728
0.9984047783802157
0.15786477618455935
0.517051145213517
0.9952031907284551
0.9580567209766508
0.9815156073705636
0.8755003005878466
0.9922438053450868
0.9247920166899737
0.9891343787661607
0.9612609088873032
0.9713225209688577
0.983913489436494
0.9386811176947955
0.9921079510024902
0.8915620966018192
0.9854924908716184
0.8304981685847138
0.963944022969158
0.756212492411655
0.927574554861095
0.6696850943373828
0.8767440962345356
0.5721374515638836
0.8120578067291481
0.4650021882198091
0.734357777244163
0.34989922778222743
0.6447138532836894
0.22861448368972626
0.5444123740266538
0.10307558550611005
0.43494116872117844
-0.02467713145154139
0.317970287411435
-0.15252346183577445
0.19532877643077873
-0.2782985659339276
0.06897798107865052
-0.3998297913548087
-0.05901825072360254
-0.5149746546978065
-0.1865261354929859
-0.6216595371389433
-0.3113769031872148
-0.717918513449462
-0.431403644102816
-0.8019316350709783
-0.5444794825202766
-0.872061932254543
-0.6485564360582825
-0.9268903746175905
-0.7417042662272989
-0.9652480265368838
-0.8221485871290696
-0.9862446493105741
-0.8883074750292421
-0.989293034656851
-0.9388258120025057
-0.9741284039841444
-0.9726066027827673
-0.9408222749758148
-0.9888385260085332
-0.8897902807681228
-0.9870190196025989
-0.82179352626859
-0.9669722551261932
-0.9495578443138321
-0.9787036004080194
-0.9288614273760301
-0.9901347009811522
-0.873194872724509
-0.9834345904491508
-0.8008256318892445
-0.9585173237123684
-0.7129441887495971
-0.9156382436235937
-0.9835270230174992
-0.9901272779060447
-0.8765241968637463
-0.9302054868860656
-0.6556307663099862
-0.7479233424192099
-0.3528063461518942
-0.4707061153444378
-0.008748644170355774
-0.13670451495317673
0.33286242044027214
0.21081853122296432
0.6309662695652556
0.5292341270602706
0.8518811265228444
0.781683720635652
0.9727283575840697
0.9410351604072702
0.9832582298621692
0.9923092893568882
0.886042736973018
0.9334609263602968
0.6952007707115574
0.7746113484898692
0.433970929582319
0.41856822092711465
-0.8553983743150024
0.5359992741287163
0.13153738978798002
0.24502997480397012
0.630976827785775
-0.1804564429687895
0.3556790616367252
0.7174640001125591
0.4619165094293872
0.7941118768826396
0.5622010217717087
0.859685132536203
0.6550414318352887
0.9130841017247399
0.7390201660207328
0.953365616561442
0.812816526756364
0.97976221490916
0.48943440603889027
0.8752294178928515
0.9916993305268059
0.9251991242731884
0.9888100885276944
0.9618277511092086
0.9709473496467219
0.9843979292861894
0.8472821753688148
0.9381926744142851
0.9923894000874598
0.32639869324218296
0.8908619135072814
0.9854931074274896
0.9363552955333521
0.969279438192494
0.9085478319856126
0.7799132647611566
0.8477500994000492
0.9879857660901921
-0.4624716878962993
0.5430708643110806
0.9036166471152997
0.9920093418073478
0.9465374717660018
0.9810997375701814
0.9757092222216291
0.9552314677091394
0.9905182485236149
0.9146111787498362
0.9905558958604447
0.9164234771819627
0.9557314843480323
0.7446728634903274
0.9756311153284032
0.9811067084719612
0.945780056568795
0.9919890325498635
0.16174983032026796
0.901272341077358
0.9880269910979183
0.8426137561764392
0.9690896038413275
0.7705451580805383
0.5138547357214582
0.9352751071137257
0.9854626065050431
0.9923929416785038
0.8936509298811951
0.9391801750648229
0.6860374277718287
0.7072185918964986
0.7851599591100231
0.7328044630592546
-0.4069751042890519
0.4489992746414185
0.5501067009090428
0.8521733686658902
-0.5595216145432981
0.6188539962722163
0.14795065071062866
0.6439519061991738
0.9071411031354288
0.7291068533667554
0.9490994252037483
0.8042374928728847
0.977258008688286
0.9910507483398809
-0.905166084325201
0.8681265741865066
0.9910173987498665
0.9196955587081657
0.9899841216916083
0.9111380662983033
0.5760263287050221
0.9580252389889305
0.8552040452295684
0.6360374705126899
-0.9823594307440906
0.5348188371220504
0.217350666679291
0.9154795998478996
0.09150874386106615
-0.25630268078554447
0.033272793210234436
-0.27526459680069143
-0.38212360754687136
-0.6429392402540809
-0.7236938456671282
-0.8943552789052438
-0.9366874567528385
-0.9934395972907712
-0.9924182588905357
-0.9320340684977996
-0.8900792953942418
-0.7280153025785164
-0.6536580011570681
-0.9636353861852652
-0.4194499474418148
-0.3252981273446772
-0.05642316499562618
0.04320019918854635
-0.22825936718973888
0.14187998934758236
-0.12937894220408108
0.2386521815806224
-0.029694613133831642
0.33259712121796736
0.06977424137084755
0.422847456556845
0.16803680665616658
0.5085951535280733
0.2641402474964367
0.5890975617270378
0.35717828947523267
0.663682514368331
0.4462989124036483
0.7317524570383472
0.8806063430402192
0.9204198665557562
0.7927876118880607
0.9519724866712357
0.8463481947381661
0.975127448931382
0.8920757123425255
0.9898267066057764
0.9872759161904077
0.9711547029172437
0.9960884690125341
0.9472791459573119
0.9940041237529026
0.9159779039970188
0.9837345989725853
0.877631813444294
0.9655062336840082
0.8326685306170882
0.939606225211034
0.7815570044179365
0.906377722990413
0.7248018428352722
0.8662146373368713
0.6629376336594186
0.8195562304180042
0.5965232763839861
0.7668815546642272
0.5261363784616314
0.7087038012329933
0.3183594284894042
0.45236776497203324
0.6455646180297514
0.3758161464066847
0.5780284532331665
0.2970829847454277
0.5066769763487274
0.6799833800126458
0.21676759334790985
0.432103624589357
-0.005999833857639779
0.13546250146382693
0.3549083179156987
0.8885723792561889
0.05374910942092422
0.2756923814186026
0.5592591458317715
0.4869855209145868
0.19505370894044696
0.411650205804487
0.6754479903856164
0.6098804312122384
0.8291969773286025
0.7776621890469578
0.9374590227104055
0.9037180700020134
0.9914221382985278
0.9784190844296144
0.9850682974108143
0.9946320334423403
0.9159159595809735
0.9485036106391177
0.7855963674176828
0.8401065355960872
0.6001873670948458
0.6738706803395627
0.37023587201127983
0.45872668390168203
0.11041579399976618
0.20790212705933336
-0.1612073846142435
-0.061668459065643326
-0.4243018217612984
-0.330328888599411
-0.6577419380826316
-0.5770543379186358
0.5424006803760952
0.11358219695044794
0.9575478646672161
-0.8413437175345404
-0.7811030434430838
-0.49062856551985273
-0.7126111634520904
0.6443103615364084
-0.399468724989194
-0.6367386811244733
-0.9577359724719264
0.9796204581277274
0.8060114328652204
-0.3046043582709716
-0.5544158456498323
0.9670508344409654
-0.2070781843693714
-0.4666199600841032
-0.7635217445394341
-0.6929620126376947
-0.913010350178674
-0.8662648227109891
0.30775323211910033
-0.9877859028176104
-0.969821788997715
-0.7317251941247094
0.2777099929527973
0.2129661111869687
-0.22935374756061466
-0.8101252248469145
-0.9408735861747477
-0.37873783095990754
-0.676502999547643
-0.03634755805841665
0.5466507537283015
-0.7807067727272493
-0.9783207688491898
-0.7661718048285774
-0.9396304235706672
-0.8894282107169167
-0.9891707925611257
-0.9864735186517845
-0.9041044567886826
-0.9507859616670578
-0.6921305346575088
-0.7831643926495517
-0.3795936764763993
-0.503272142323318
-0.008957981011372613
-0.14814473335439324
0.36643431230692675
0.2320937262088069
0.6897995267801593
0.5809527165400566
0.9095908012918278
0.8439341560873269
0.9881264732133367
0.9773437745053334
0.9087133176401712
0.9561352120718015
0.6798791292641758
0.7793461122025571
0.335659758001138
0.47192008801344004
-0.06854039264970098
0.08219850988056622
0.5969917589503515
0.2305441861837316
-0.32493798455810613
-0.17838842200170624
0.3730962189515404
-0.02811859421105507
-0.5596716363910599
-0.4278293301878464
0.1223231529673765
-0.2862377195122139
-0.7554812629235399
-0.6481103349849371
-0.9502595832137652
-0.8974442414909102
-0.5254899558623753
-0.8228026932894825
-0.9859051833770719
-0.9741826620932824
-0.8928561190005575
-0.9479136170823268
-0.9383437266421601
-0.9788660049221756
-0.7442333372863379
-0.8379202585862291
-0.9851699841764828
-0.9099174668084428
-0.5374401501379775
-0.6631525117215143
-0.9586051221183466
-0.7713490109690562
-0.2876583337538632
-0.43608843419619087
0.14671662036847039
-0.013904967741889254
0.5553526779002327
0.41425144678814313
0.8551747493735286
0.7627104327747292
0.9819468260654467
0.9584203869066674
0.9049361878104241
0.9570011507628612
0.6355015732593112
0.7539119464457961
-0.5726746256175774
0.22712448987312842
0.9816177936790061
0.8501111212710565
0.9783374505312019
0.9215226413055846
0.9475074254697199
0.9663223530420508
0.8902440897372865
0.983474814584013
0.7819868782348018
0.8717667027301099
0.9727460274295051
0.9361944150373648
0.42903066266340856
0.9346929105947258
0.9736546129432386
0.8706305935255072
0.9833263297627213
0.8266719153669366
0.7825792007650311
0.44290934834031015
0.9651894578701613
0.8915990557128427
0.673192322864398
0.9200081386873575
0.5456698031479946
0.8492923636780055
0.40365781034736054
0.7552396097183619
0.25113940764162335
-0.18500237011631465
0.6406588321406503
0.09231896744991218
0.5088795493707916
-0.06849618013686937
0.9556889007192684
0.36364906798364255
-0.22701353484243017
0.20902111264831028
-0.3790694662918331
0.04923923976016505
-0.5207365523913269
0.6068809223993584
-0.11138157353113678
-0.6484215635558738
-0.7311708558344324
-0.7453517905142372
-0.9014308055705206
-0.2685718588451375
-0.7589518057307882
0.4632542419306071
0.7607333622804833
0.6825852518205134
0.681690169310906
0.9923304798214723
0.16213734620756748
-0.8273921211753484
-0.7645745479408825
0.7442908748359454
-0.41821998129971955
-0.8496479557768913
-0.002978314876722457
-0.9730732435593392
-0.5874641293549389
0.4937507083780835
0.9774971461793421
0.19123517882752555
-0.9538648483253631
-0.67278213231782
-0.8520911751389391
-0.9840584997265556
-0.9631034268380264
-0.983091169471072
-0.9935050859609097
0.6160509799991121
-0.4848506355566434
0.16650848630259157
-0.556477019627236
-0.9183819896154674
0.677569981417116
-0.895261465946295
-0.9373689055807811
0.991913038168495
-0.2995376581576868
-0.7935498833044793
0.8890528305177858
-0.6798517444809143
-0.9636193029775175
-0.9623044089405189
-0.916827111141157
-0.9844446328629171
-0.8489720238064957
0.9272534751562863
-0.9530578910391517
-0.8259714091559383
-0.7594118603155905
-0.5303000353486548
-0.4319119069601972
-0.7864996567093728
0.06456987381179992
0.1629214409439214
0.4182109140918962
0.5042156421091759
0.7106753804231509
0.7740177268890693
0.9085423268545382
0.9427607615688564
0.9934030072085913
-0.9805718534507802
-0.7606169075788534
0.9890318820351588
0.9958919516192561
0.8427640345066496
0.60422997765031
-0.6843209181666667
-0.2839052112776514
-0.7251461007841312
-0.7963274798959209
-0.9680199687537868
-0.8573620540335677
-0.13626497036018867
-0.022228388173205528
0.986487478396701
-0.9675700057678747
0.44149919958562694
0.13974679913482235
0.025022080792896265
-0.283090977088787
-0.38960437070791915
-0.6490338105524466
-0.7291423792402754
-0.5603687020550008
0.9867149581475134
-0.98701182518225
-0.907644446838063
0.9962120759834949
0.9622166891447551
0.968619079912058
0.9815727607814311
0.8715265106714047
0.9108611773967229
0.7320950595839738
0.7881911169503056
0.5541255631799351
0.6230403956201725
0.34921818800624466
0.4265966121325396
0.12953868697749762
0.2109112504379014
-0.09293972346200795
-0.011890410950836728
-0.3070832097793877
-0.2303004020441683
-0.5031088441221977
-0.43399105466620025
-0.6729498765576348
-0.6142343155508261
-0.8104752672421087
-0.7641739360819714
-0.9115732420825793
-0.8789571880953073
-0.974115478687361
-0.9557404910685355
-0.997822968029473
-0.993588641869623
-0.9840568142516246
-0.9932903383503079
-0.935557536139286
-0.9571136495192801
-0.8561551956985878
-0.8885243641577
-0.7504703048690999
-0.7918881445205855
-0.6236223436664021
-0.6721745223855273
-0.48095921862892116
-0.5346773735830486
-0.3278174024243031
-0.384762918408908
-0.5867319644017758
-0.4407457819211183
-0.22765278302326478
-0.2856812835909269
-0.49551353253774644
-0.3431705514299553
-0.12657385983900085
-0.18498219506194893
-0.39987896259034095
-0.24325227810584185
-0.025736644345345703
-0.08386650540842701
-0.3011560059731012
0.13026660652319466
-0.1422325176946457
-0.3584570808212469
-0.20062230646534993
-0.41491186595900803
-0.2588140971984511
-0.47027033926213285
-0.3165774077357534
-0.5242771438728023
-0.0994899706063203
-0.37367383276525